,formula_pretty,material_id,formation_energy_per_atom,k_vrh
14131,VS2,mp-9561,-1.1848860820833333,19.666793850812862
84802,HfC,mp-21075,-0.9398176399999993,236.17053397016866
14535,TiZnAu2,mp-865730,-0.35065417333333393,134.8812807191492
120199,MnNbP,mp-20335,-0.8128289754214558,227.96677396751392
70438,CuNi3O4,mp-761415,-1.0848371468750004,164.36045233894583
143730,YbCl2,mp-865716,-2.891348665,36.0668930953411
55415,Cu2Se,mp-22297,-0.11892559411458296,89.39712893632597
70459,C,mp-569416,0.028302975000000785,82.43941898072553
137573,Zr2Co,mp-628,-0.25729491833333284,107.25910334146396
134635,NaCuO2,mp-754718,-1.2682181641379309,61.60539425528693
112836,Ga,mp-140,0.024173172500000284,49.366336618788964
109322,LiMg2,mp-973455,-0.039739459444444535,29.61769911749102
51582,TiNi,mp-640189,-0.3768867474999986,152.16473291688575
94932,Na3P(SO)2,mp-558432,-1.8530773608423132,27.957700690935308
58290,ScTlSe2,mp-13313,-1.4887621707552077,40.945410117565395
97584,B2(CN2)3,mp-989460,-0.3455954998484843,4.831665090830253
9443,CuBr,mp-32880,-0.5165772237499997,48.28838117165239
20359,Cd2PtRh,mp-865929,-0.1911811499999998,136.9839360421657
43749,AgSbTe2,mp-12360,-0.277489244166667,49.79310005180977
9089,PBr3,mp-27257,-0.7880529708333333,1.4017157678528833
103703,VC,mp-1282,-0.4106154199999992,306.75864520688685
102869,Rb2Pd3S4,mp-11695,-0.9493430341666674,20.322128960645806
126505,Ti3Pt5,mp-30851,-0.9417133700000004,201.51388495483002
125706,ZrPt3,mp-30858,-1.0069477475,228.06924684696196
145465,Yb(CdSb)2,mp-9257,-0.5386943500000001,40.57484896574329
26086,MoS2,mp-2815,-1.2015578587500002,26.03065305896854
48070,BaPt5,mp-811,-0.4733974816666671,147.64695716242306
55200,TlInSe2,mp-22232,-0.7565904757552087,22.50822263891691
116567,Co3W,mp-2157,-0.08435097125000013,279.29452786343495
30989,Be3Ni,mp-865168,-0.2836857012499996,153.50930075204633
50832,GeP3,mp-7542,0.029231818749999583,46.55289555307868
134582,Li2ZnSn,mp-11490,-0.27378994541666657,37.57849493249114
134272,Zr2Fe,mp-1159,-0.137636435000001,124.2649553560912
85578,BiF3,mp-23237,-2.7786668043750002,54.457601455945124
52353,TiCl3,mp-23275,-2.043337883333333,8.665314507810693
100685,V2O3F,mp-755197,-2.6695262045833332,119.78178149384786
141962,Pd3S,mp-558378,-0.33951602828124994,113.9411084869138
27267,Ti3Hg,mp-2354,-0.10275144999999952,118.55301099596335
74916,HfRh3,mp-1027,-0.7463878449999992,219.04991187066042
140710,Ti3Sb,mp-569837,-0.3724787781250001,109.40932923772121
46581,CeO2,mp-20194,-3.9284631016666665,176.67124429410433
33177,BeNbRu2,mp-867828,-0.27589617625000074,230.69749995295058
62448,ZrNi2Sn,mp-19877,-0.4969749937500003,144.36463582649031
131288,MoCl4O,mp-22974,-1.2801838366666665,1.6368804692272365
82147,Rb2CoO3,mp-761568,-1.4559767533333339,128.0524094816968
86354,Ti3TlC,mp-4563,-0.44150347266666756,145.73182752092055
95959,Ba3FeN3,mp-8306,-0.7124209828571425,32.73930825182242
144038,B2O,mp-614006,-0.7110137211111116,24.457627545699484
82463,ZrMnO3,mp-754513,-3.0583721385862064,159.90251580034692
34252,YInNi,mp-672299,-0.5032699933333333,86.19841085730211
20729,SmB6,mp-6996,-0.4549984671428565,174.83476887385058
53390,ZnSe,mp-380,-0.946334851171875,55.67130717511045
61618,CdIn2O4,mp-675464,-1.7716643142857136,131.4682646512582
85783,Al(CoSi)2,mp-10010,-0.5105188460000001,175.4724468690324
126162,VOF3,mp-556026,-2.7140767680000004,6.827094710361495
29080,Tl(Cu3S2)2,mp-557929,-0.3572700514393942,53.76176790423372
87188,LiFeF4,mp-755299,-2.766907487222223,55.443101182047045
20074,PW,mp-2420,-0.3690031079166669,221.65212492480742
102816,ScGaRh2,mp-867928,-0.9734605056249999,161.12572564371
14343,LiZnN,mp-7575,-0.3974951061111109,115.75408757557433
5062,Sc2PdRu,mp-862370,-0.7844781912499998,128.72568628978973
38040,NbNO,mp-754495,-1.9193926474999994,138.9541765391707
46794,Tl3VS4,mp-5513,-0.8594688728125002,25.439933367080428
74553,Li2CuF4,mp-752843,-2.528767318095238,43.22610033442423
86068,Sr4ZrN4,mp-1029580,-1.0836755107407414,70.52682500569946
21668,Ti3N,mp-980940,0.2571977812499995,110.52202573674228
15553,YSiRh,mp-19728,-1.0285665247222215,124.01255503962818
139659,Cs2ZrCl6,mp-638729,-2.3949891884291183,8.654975660811914
106307,Li7MnN4,mp-5515,-0.6984286909386969,80.37436548071244
45974,InBr,mp-22870,-0.9385631537500001,12.564243450652299
3855,LiFeAs,mp-21471,-0.4413801444444445,67.74698214035213
104823,Eu(FeP3)4,mp-20856,-0.5608445732352938,151.15071777985554
99976,Ca(MnBi)2,mp-29615,0.04291063682758604,32.581424719315095
131524,Ba2CoMoO6,mp-561894,-2.456581189500001,121.26390085505648
139068,LiCuO,mp-755646,-1.3374367044444444,37.619592707695595
15217,Mn(BW)2,mp-19789,-0.41418075225287365,305.8433892797283
20743,Pb(ClO2)2,mp-615141,-0.6388999007142857,13.47756253398166
33367,CuSe,mp-580226,-0.31501714617187515,23.19375277030055
68143,YNiSb,mp-11520,-0.9636055455555557,93.99898738655162
101281,VF4,mp-753759,-2.9623234,14.069845606461076
13451,RbCrO2,mp-771648,-2.0000403843750005,107.71111228400761
107306,AlV4C3,mp-569458,-0.5061182568750002,219.0451736258318
133166,Zr4CuP,mp-581733,-0.5613222180555558,119.85035172239355
142132,Sc,mp-567308,0.20573354000000066,45.869518504005
82605,CaAl9Co2,mp-11350,-0.37827172416666716,84.5045406652294
113254,ScRu3C,mp-7130,-0.27710553799999926,233.70181071319854
88028,Ca6MnN5,mp-17577,-1.0015992410775876,76.59605355974284
78380,Cu3Pt,mp-12086,-0.13895371,159.3213528393323
43113,ScAl2,mp-813,-0.4868887249999994,87.80571071298873
127398,NiF3,mp-614777,-1.7505199343750002,51.325399692284236
118138,NbSi2,mp-12104,-0.5019119911111116,174.57779004966972
65827,CaVO3,mp-22608,-2.9363439975000007,159.65316548883624
43342,CaAl2O4,mp-14600,-3.452869487142858,74.05801982765215
61951,Sn,mp-1022725,0.05425683499999989,40.028206885711356
77348,K2P3,mp-569857,-0.4367019007000003,16.823934281328707
134747,HfGaCo2,mp-3576,-0.4920948318750007,174.28141672751278
15784,CoPt,mp-949,-0.0858202324999997,215.90012018618216
96713,ZnBr2,mp-569960,-1.1821417816666668,8.046363718635979
24143,CoTeO4,mp-768381,-1.359069918333334,37.87981483076723
76789,MnSiRh,mp-22565,-0.5527420326436783,153.52084602574593
143019,Zn(GaNi)3,mp-570845,-0.3732787335714285,132.8131417523436
15671,MgCo2,mp-864931,-0.033146828333333524,118.52094744807833
75989,PbWO4,mp-22410,-2.0032740075,65.5170213491289
118482,Zr2CoP,mp-29152,-0.9335319495833332,154.27312435440425
83746,RbTiS2,mp-16318,-1.5205495867708336,52.2452941973428
109017,SbSI,mp-23041,-0.606170199375,7.323975552070701
53712,LiFeP,mp-20049,-0.6527000105555558,80.32885250048186
101609,TiNi,mp-597,-0.37315426500000054,151.4514258563813
72274,Zr3Te,mp-1793,-0.6054754937500011,105.68118487565216
96209,Mn2PtRh,mp-865032,-0.2816344764655172,175.3119336926344
48674,LiAlNi2,mp-867812,-0.3995444558333334,120.40075860381631
101168,Li2NiO2,mp-754756,-1.643211543333333,31.786098947727382
45523,SrHfO3,mp-4673,-3.8085023363333335,154.6362045285726
31890,Ti(GaO2)4,mp-553991,-2.550848699487179,150.60423134194912
135652,HfO2,mp-776097,-3.991790159722223,200.21103001473
22038,SrCuP,mp-16321,-0.8190151116666667,66.46980461257618
133947,BrF3,mp-23297,-1.2424303275000002,7.165178517582732
13443,SrCuSb,mp-10749,-0.7663152038888891,47.59843011083906
33979,VS2,mp-849060,-1.1825171620833335,10.216456169716931
64724,BaSi2(NO)2,mp-6764,-2.3416668857142855,94.70723103577153
60729,ScAg,mp-11237,-0.2870132158333334,82.13750116462273
44254,Ge3(BiO3)4,mp-23560,-1.930595065526316,50.77193633375827
63902,LiAlCu2,mp-867272,-0.22127855583333345,88.1385886663614
47063,BaSO4,mp-3164,-2.7072712488541666,51.63190105923482
117901,TiCoSb,mp-5967,-0.7251703294444442,141.99140523524866
53550,SbPt7,mp-1030,-0.09400805124999945,210.31211861146392
43909,Li2GaPt,mp-3726,-0.6653189985416668,84.70138796679277
141764,CdSiAs2,mp-3078,-0.12145933249999974,59.410531487746724
38077,YbMnO3,mp-19356,-2.4940852845862063,113.54065493293567
22999,YAlNi,mp-13095,-0.6009806288888895,92.06920521064251
140499,SiRh,mp-2287,-0.7629441200000002,183.6093777889389
48710,MgMnRh2,mp-977463,-0.3235684744827587,133.24878082811966
126623,MoO3,mp-1445089,-1.9146040256249997,37.68752044314205
130877,LiCu2Si,mp-7473,-0.20740252583333296,104.07323892041703
131459,Fe2O3,mp-19770,-1.707096457,192.13813061359554
145467,TiAl,mp-1953,-0.40694453166666733,115.05343424776785
20005,Li3C,mp-976060,0.4746879100000001,66.54432874739808
79159,GdCl3,mp-23265,-2.7009571625,28.971347597812727
14707,W,mp-8641,0.47142408000000025,282.86602011275505
50645,RbBF4,mp-3032,-3.309778116111111,17.032733996299456
115053,Al2O3,mp-752826,-3.3478086462000003,165.9469654290192
139632,Zr2SeN2,mp-1029337,-1.7943417964687511,147.48111300963006
125230,Ni3Sn,mp-20112,-0.18520410999999903,164.25987018242978
36667,AgHgPd2,mp-861501,-0.14353725041666632,118.05159039611864
135080,PdSe2,mp-2418,-0.5964911090624992,22.525998607871966
117089,Ca(ZnSb)2,mp-7429,-0.523427616,43.75039551757958
46778,ZnN,mp-999473,0.5147460624999995,164.21013950483803
25254,Al2HgTe4,mp-7910,-0.6229170592857142,25.99949879578014
41231,AlGa3N4,mp-1019508,-0.8773966390624999,177.6140505791909
140472,TeO2,mp-557,-1.48360912,29.5352168242583
29912,KAuCl4,mp-27181,-1.3219672746666664,7.075066895017179
120679,Mg9Si5,mp-542854,-0.08313426107142823,58.6444123882846
106498,YTiGe,mp-5042,-0.7098813450000007,87.26802338860529
139187,VAg(PSe3)2,mp-6543,-0.543102628739583,12.59055415537108
42786,Li2GeN2,mp-1029776,-0.5689553748333338,85.28838483926913
122878,CeAu,mp-1018087,-0.6411649174999994,66.31623809625412
24326,YCu2Bi2(SeO2)2,mp-550306,-1.7373310192140154,61.23589189747837
22991,FeBPbO4,mp-20028,-2.0858283777380953,61.032526469673
30838,ScRh3,mp-635,-0.60684138375,184.31890329700263
86845,K(CoS)2,mp-12079,-0.8278480678500003,43.34956916129586
11756,SrAsPd,mp-9743,-0.9657052472222224,62.636416443871724
64890,ZrNi3,mp-485,-0.45845552374999876,170.47582534687757
108924,Cu2GeTe3,mp-674953,-0.30242218083333344,48.01423198927678
38215,BaC,mp-997616,1.392362695,37.823784979715256
136224,CeAlO3,mp-4096,-3.6155104749999993,189.10725971179215
124380,ZrHg3,mp-1608,-0.06614590125000008,81.52623068390247
58973,Li2InPt,mp-21026,-0.5682559266666667,71.88051368069677
27994,Li2CoCl4,mp-22980,-1.6240206916666666,24.958878651623728
91562,YPt2,mp-2674,-1.084260490555555,162.39707836030382
4498,Sr2VO4,mp-18972,-2.9614733990476196,130.66402095509557
31899,ZrGeO4,mp-8042,-2.9644210391666674,201.65127295130105
17988,Mn2CrO4,mp-765581,-2.178301561194581,154.34266537703476
130183,CrCuSe2,mp-7861,-0.4082164686718741,68.82667075638506
111413,YHg,mp-2399,-0.5162792708333335,65.05460326301794
90148,Li7Si2,mp-27930,-0.1981300175925927,32.58788097320955
129442,Mg3Ru2,mp-625,-0.14328825950000024,107.49318046407394
20648,Sr2SnO4,mp-4287,-2.786113509761905,106.46390962063437
68145,ScInPd2,mp-31339,-0.8333712687499997,118.48202112097081
26741,Li2HfO3,mp-756597,-3.1409555244444447,95.3294822310679
23739,GaFeCo2,mp-30551,-0.24105996687500042,191.11803769188808
31016,BaCO3,mp-5504,-2.683620472,50.42916569006796
13369,Tl(CoSe)2,mp-4475,-0.4127336696041667,46.91650814293877
25774,ZrRu3C,mp-10706,-0.32684769299999916,256.8742513022787
26662,VS2,mp-557523,-1.1826041937499998,10.580691913218963
142043,Y2O3,mp-754759,-3.919427760666667,137.69446060671572
96999,TiCo2,mp-695,-0.30237454944444525,167.79767075130798
52526,NaTiO2,mp-7002,-2.788169992471264,98.35851862393761
143071,PbICl,mp-23053,-1.1946599108333331,6.96769148890905
77445,K,mp-58,0.009577237000000016,3.722272067430742
67915,Ca3Ti2O7,mp-4163,-3.511848975138888,129.81187052647013
1272,CaGeN2,mp-1029446,-0.6049367824999994,126.93958390793688
74679,LiBr,mp-23259,-1.8103985954166664,21.062752202960528
51473,AuN,mp-1008610,1.5102571624999994,172.47254332211344
45125,La2O3,mp-33032,-2.983468005,101.69311546478124
95106,FeAgO2,mp-19225,-1.2217076847916672,131.31395707255587
125916,RbVBr3,mp-570099,-1.5485808050000003,13.89885819308651
144490,Rb2Se,mp-11327,-1.20728777578125,13.896562315692519
90850,CoGe,mp-10692,-0.21165486499999986,157.33694236304126
64927,Sc2Al3Ru,mp-10911,-0.6516310758333326,111.94891320433655
126169,InCl,mp-571636,-1.118874425,10.215302395089306
89207,Si3Ge,mp-972751,0.5807996312499997,90.08680585354514
25420,SF4,mp-33107,-1.5584269166249995,3.558809470848428
135520,MoBr3,mp-23312,-0.9782898593750007,2.4620903677050516
134705,VOF,mp-754589,-2.845683450833333,149.5215031851974
123974,Zr3In,mp-20695,-0.2506585250000004,96.69946304937062
87243,TiGePd,mp-20268,-0.7103129894444441,150.25297701861854
82108,K2CuAs,mp-15684,-0.3482022652500003,21.006507500489967
127349,WBr4O,mp-32536,-1.064991349166667,9.758437402150232
95705,LiV2O5,mp-777667,-2.4542407110416686,74.19521091473183
123726,Fe11MoC4,mp-995434,0.19485200937500124,191.73350839686907
61296,NaNbO3,mp-4748,-2.821961123310345,122.70390369932136
116062,DyBr3,mp-864982,-2.253160935625,3.6604778906483153
108226,WN,mp-1430706,-0.18025087000000006,328.04732391317214
88879,Al2ZnS4,mp-4842,-1.3011535553571432,84.06881208687409
22559,InBi,mp-1001833,0.0247753399999997,30.7424731427303
25446,FeAs2,mp-2008,-0.2641239466666671,133.65145920332486
4533,TlCl,mp-569639,-1.323994321666667,20.29664587750866
41705,Zr3(Cu2Ge)2,mp-15985,-0.484777212222222,132.70503318060304
100967,Al2RuPt,mp-867125,-0.9008386337500003,200.904717162094
48469,Ti2AlN,mp-4978,-1.260449857916666,155.36372267736618
52366,Li15Si4,mp-569849,-0.21964146763157918,29.952936487787877
57235,Ba(BeN)2,mp-12927,-1.108668195,98.35763910262651
143189,K2ZnO2,mp-8187,-1.5858322861999998,42.79331566050678
46971,Na3(CuS)4,mp-27321,-0.7984362638322883,40.281278905720285
101309,BaAl9Fe2,mp-16483,-0.3166822558333333,79.30069908428311
34817,VFeO4,mp-850978,-2.0060553575000006,130.7746021176635
87613,NaMgAs,mp-5962,-0.6363564071839084,33.39554645855655
111225,WC,mp-1894,-0.1226415499999991,385.19424816752843
99660,FeO,mp-753682,-1.3944237725000006,124.9578974511183
5608,RbFeF4,mp-556646,-2.8103047612500007,48.11586147487948
24208,BaTiO3,mp-2998,-3.477499219666666,163.21127950924483
60137,NbO,mp-2311,-2.2876549474999996,243.45044045526467
44861,TiPt8,mp-30852,-0.4346668581481481,241.60238281735832
102439,LiZrRh2,mp-865868,-0.6326209083333332,138.22369856400144
131316,Sc6Te2Rh,mp-31072,-0.7950049566666672,72.94809600473113
32906,MgAg3,mp-864934,-0.16183628375000003,78.1047252896436
93204,Na3AlAs2,mp-8543,-0.5127723549425287,23.133396919756677
50509,ZnS,mp-10695,-1.0628694815625002,68.2530652721109
17145,NbPd3,mp-669692,-0.4255900283333342,196.10332197775955
26444,SrIn2Pt,mp-20533,-0.6645257116666663,52.17603799513804
74992,MnAlPd2,mp-10891,-0.5930342794827581,141.40447883394864
25698,AlTlF4,mp-557233,-3.2824191830555556,44.85872063941099
100527,CuCl4,mp-32829,-0.45853417599999985,2.205767097825422
87481,LaFeO3,mp-22590,-2.8251563340000003,157.8886722788713
41339,Si,mp-571520,0.16068323000000007,79.99991070133515
61356,ZrZnN2,mp-1014244,-1.0446600050000008,177.28639875434328
70924,Ba2MnTe3,mp-16905,-1.4603631163218391,28.539054378631366
123868,TeWO6,mp-757056,-1.7183112287500002,76.83588493650495
109126,CdF2,mp-241,-2.480709078333333,96.62557178539494
79589,Sc3TlB,mp-10140,-0.3566117194999997,73.83149172908426
38369,MgNi3C,mp-10700,-0.13670492599999945,175.6175469279073
24678,MgB7,mp-978275,-0.13057053333333268,183.75974395536673
120745,YZnRh2,mp-865517,-0.6203191741666663,125.73910023640002
52519,CaMgSn,mp-4864,-0.5529510366666667,40.3638134164663
97608,Zn2SbN3,mp-1029334,-0.029826820833333063,131.5797457456543
144654,ScAsO4,mp-546125,-2.6865457866666653,140.68686113732196
7955,ScGa,mp-11411,-0.6025011662499997,75.62385782845328
61688,F2,mp-21848,0.7608962149999998,147.63678328236952
52903,MnSiRh2,mp-865015,-0.5771979394827591,207.77205014423112
95443,LiZn3,mp-865907,-0.1693865933333334,58.063190402798355
104544,Yb2Si2O7,mp-4300,-3.095893572272727,91.64506599631257
59346,Li3FeO4,mp-754360,-1.7596858824999995,77.88246974682035
33097,NaCo2O3,mp-755782,-1.3491856977586216,86.38249962500686
24660,NbP,mp-9830,-0.38768566166666574,154.19841654311347
50104,Y(FeSi)2,mp-5288,-0.6485073773333326,139.72910577324592
68357,Ag,mp-10597,0.0075411533333333836,87.54076795148255
72029,TiO2,mp-766454,-3.436994466666666,154.98885675832997
120459,TiNbN2,mp-35869,-1.4783620070833337,292.47208389387606
40699,FeWN2,mp-29076,-0.3885338912500007,224.3165578946174
103901,MgIn3,mp-20566,-0.013365204999999936,40.069110283210286
98768,Zr2Ga,mp-569833,-0.46484443416666704,107.1079742244033
33286,MnVO4,mp-756542,-2.1229675321551724,112.379631513063
103157,LiCd2Pt,mp-867206,-0.4280121883333332,82.9946507852919
58795,BaPdS2,mp-4009,-1.4715703328124996,39.90993982049039
93457,KMnP,mp-20422,-0.4252086280881227,18.799066969908665
20708,CdS,mp-672,-0.8838370815625001,53.31235566206108
107533,Yb(FeP3)4,mp-12956,-0.5575667752941175,150.3937057004306
108668,MnGaPt2,mp-864948,-0.4791512863577587,169.47889251181897
35082,NaMgF3,mp-2955,-3.4999177253103446,69.62190018079113
137527,Li2V3O6,mp-762271,-2.4614773946969692,106.68569569545484
44718,SbSeI,mp-22996,-0.6018807124479171,9.380911452963087
10984,Fe13Co3,mp-641526,-0.03218352093749921,184.23599212528927
128694,MgGaAg2,mp-865183,-0.1546940577083329,65.70098325842753
93429,Cu3Ge,mp-19724,-0.005706961250000475,122.93827083293368
145628,LiCu2Ge,mp-567097,-0.18276138458333335,89.19424312197421
50435,NaNbO3,mp-3136,-2.8043228383103456,181.33537855427096
83768,InPS4,mp-20790,-0.6955120493055554,17.62205742534021
85281,MnSiNi,mp-20949,-0.46811886514367745,164.58637655957656
74633,KBi2F7,mp-675634,-2.7909148360500007,49.520906140655526
8920,V2P2O7,mp-753579,-2.5858984846969704,118.69890454802812
50627,Ca2Mn2O5,mp-20443,-2.5762405489846736,107.32007833607685
26681,AlCrFe2,mp-16495,-0.16422231499999995,239.46024182937103
116862,MgCuP,mp-7352,-0.4299206336111112,93.89216713822952
73140,PCl3O,mp-27277,-1.5843036276666667,2.6268903164644364
115357,Ca6FeN5,mp-16916,-0.9326912583333341,76.22680657324324
78433,HgI2,mp-23192,-0.56629213,4.414650957412036
50012,Cs4ZnO3,mp-1019612,-1.422118927090517,18.4014932769849
42647,FeBiO3,mp-22949,-1.640832425,86.69681235442683
24958,CaCu5,mp-1882,-0.12194347999999937,91.09044691683013
57449,Cs3Ti2Cl9,mp-569484,-2.2143353325328405,8.488624834318774
483,CsCu3O2,mp-553303,-0.9714943813218392,16.863708091052068
47986,NaN3,mp-22003,-0.37158070288793077,25.758507535547384
38241,BaAgO2,mp-996990,-1.7532144216666667,82.14656052678302
17191,Sb2Pt,mp-562,-0.4789963874999999,103.66711262086994
105434,Cr3B4,mp-889,-0.4602709238095234,299.02498646498134
63587,Rb2PbCl6,mp-23475,-1.7062680716666665,10.150869826568357
31960,Bi,mp-23157,0.050300224999999976,41.356927806731505
117803,Nb3Rh,mp-1545,-0.2547317625000005,203.7240070367746
57598,FeCu2SnS4,mp-22648,-0.5838532734374997,67.76512167218652
86020,Ca3AlN3,mp-29596,-1.1649259075,93.18324824201864
54188,Ba(FeP)2,mp-4883,-0.8115195713333335,90.14083009070907
11286,SiC,mp-9947,-0.195581898571429,213.27999310873918
25199,Rb2PtI6,mp-28110,-1.0330627505555556,9.364265206916535
2049,KHgF3,mp-7483,-2.2053561131,50.74615979275404
33320,PdF4,mp-13868,-1.4989163859999999,34.876379717022566
34653,FeBiO3,mp-23501,-1.6727793330000005,109.10598102886503
84150,Mg2Rh,mp-12693,-0.4210671933333335,65.49886363505144
107199,Ti,mp-72,0.0,113.07838514256369
7238,LiVF4,mp-755801,-3.2207911222222223,37.52431588803165
58060,Mg3Sc,mp-864937,-0.03439492374999986,43.21297926547057
11315,Li2WO4,mp-19260,-2.352370806666667,68.88642139448278
5292,LaAu,mp-1002136,-0.8209628025000004,64.61289163298068
60273,Bi2WO6,mp-23480,-1.9565531949999995,67.35896120234317
92449,Ce(P3Ru)4,mp-10069,-0.684143455,167.06875707400576
80894,Na4Al3(SiO4)3,mp-542090,-2.999708661873041,27.863365711556817
88492,TiCr2,mp-1425,-0.10441789777777781,198.9108158276996
102197,BPd2,mp-7424,-0.266144823055555,178.9958645551797
66775,BaAg2(HgO2)2,mp-557862,-1.1229665420370365,46.339104679117455
60041,Cu2OF2,mp-754084,-1.433975883,26.493867736268292
31774,WSe2,mp-1028698,-0.8720555082291668,17.61733658094562
6016,YAl2Co,mp-16493,-0.5433686504166673,89.22888037463804
97830,Er2O3,mp-2460,-4.008864842333334,152.43790908903074