,formula_pretty,material_id,formation_energy_per_atom,k_vrh
35367,ZrTiTe4,mp-8677,-1.058426295555556,14.743917962590967
67173,LiY2Al,mp-862555,-0.24400332416666703,49.55130778409651
97381,CaPt5,mp-30481,-0.5135041733333333,166.40402675574236
15418,LiLaTiO4,mp-6521,-3.451740582380953,120.77188178964607
101747,CrC,mp-1018050,-0.003951839999999152,341.7788932070904
88516,AlNi3,mp-672232,-0.38718629749999955,179.98913009079433
9572,GaSi3,mp-983359,0.5194510031249999,85.5488745548551
100247,Rb2Sn2O3,mp-7863,-1.7204352542857144,24.066742253040253
142778,Li3VF8,mp-753288,-2.9443963216666664,19.108936345577007
91873,PrCl3,mp-23211,-2.7581206037499992,33.74024406929688
9821,Al3Ni,mp-622209,-0.4049159087500005,113.24143738786805
109757,LiCuS,mp-753371,-0.860484972152778,34.49593494531908
117166,LiTl2InCl6,mp-989512,-1.5762105029999998,22.278545818268768
76527,PdI2,mp-27747,-0.5030042033333336,4.3365328797764935
1044,SiC,mp-568735,-0.2044199144444434,213.31466602774503
140245,TiNiSn,mp-623646,0.1347720338888898,96.87239346097044
144078,MgCd,mp-978274,-0.0989307299999999,42.41226250830198
83365,Sr(CoP)2,mp-5671,-0.8342433066666672,84.68476646157055
85257,LuN,mp-1102,-2.0580220474999997,179.46948314120544
142238,CoAgO2,mp-753001,-0.939498910416666,127.87631575794528
56562,Ba2TiO4,mp-3397,-3.3990923883333335,63.867326443089354
40624,TlFeSe2,mp-9810,-0.5067602482552083,17.92069678736111
141715,MoN,mp-2355,1.3137286350000004,226.21970741540014
118634,CrPbO4,mp-19146,-1.724381490833333,33.46697601455618
93680,CdPt3,mp-866022,-0.16551783249999996,192.01723186648496
8500,Hf2NiP,mp-5918,-0.9723959033333323,166.7090632008086
5367,BeAu2,mp-12761,-0.13576859500000005,136.78824623387885
83913,TiGa3,mp-2731,-0.3735623614583332,99.7029020874414
31067,LiPt2,mp-30764,-0.43033864444444464,136.49464264949103
133949,Sr2AgPt,mp-867163,-0.5197191274999997,41.19273690371897
89413,LiVF3,mp-753024,-2.974718761166667,45.91349277641274
83338,SnCl2,mp-569152,-1.4022609525,5.946438658533465
8265,Zr(CoSi)2,mp-569344,-0.7803848180000003,186.22644722345365
68692,Zr5Sb3,mp-2649,-0.738783664375001,104.61725433108502
139760,Ba2GeO4,mp-752730,-2.8519517539285713,64.0420663719632
71369,Sc2AgHg,mp-862702,-0.3642288379166665,78.36481443473006
141768,VOF,mp-754072,-2.8333599191666665,157.46809777346505
54060,MgSiN2,mp-15701,-1.32510429375,174.29280029231498
96752,Na4Ti5O12,mp-555678,-3.1109502420415986,130.85019404883892
81164,Zn(GaTe2)2,mp-15777,-0.6253142607142854,28.306168206535844
34174,O2,mp-1023923,0.9644220599999999,2.363388183053926
4108,Li3VS4,mp-760375,-1.3606976965625002,12.84931084673486
96882,As2Pb3O8,mp-505368,-1.735235113461538,41.38844697756734
121294,Sc3GaC,mp-8577,-0.6723389844999985,100.17193120827336
81696,YMgAg,mp-30737,-0.29161236666666684,57.560292873778664
97225,Fe3Sn,mp-20883,0.034473030000000016,129.06692048413805
118129,Ca(CuSi)2,mp-5486,-0.3707867780000001,92.90787101801226
119353,LiAlPd2,mp-867820,-0.815358588333333,129.03341678341155
22526,HgSe,mp-820,-0.44173881867187514,41.173687723231744
1307,LiMnO2,mp-25542,-2.1379127440660923,101.17296480965578
28827,NbAlCo2,mp-5149,-0.4288084450000005,192.04441162696884
121099,CaZnSn,mp-31160,-0.5168031633333333,46.16295535517786
49273,Ti(SnO2)2,mp-18288,-2.4321511844047614,64.12047488830945
35457,I,mp-684663,0.4456665849999999,26.05957621170323
3695,NbCrF6,mp-28907,-3.0606673931250006,65.44429440862052
11863,LiVF4,mp-752465,-3.200468371388889,40.10279298570462
102242,SiO2,mp-6930,-3.2567029055555565,26.362849776681674
90128,CrSi2,mp-8937,-0.32491061999999954,195.0337841763453
40916,BaBiAu,mp-31140,-0.277760185,36.919554564898846
18198,NaAlO2,mp-7748,-2.8689154241379304,133.4121919609073
41496,LiMnO2,mp-754656,-2.159869964066093,101.89133050426017
103152,LiAlO2,mp-3427,-3.082882981458333,93.42796312697382
110697,SrZrS3,mp-5193,-2.0789475512083335,69.65157998455672
62988,Cr(FeSe2)2,mp-568349,-0.560429889910714,68.52216164751991
117187,SnO2,mp-856,-2.1074815433333334,171.93721697055727
96701,Si(CN2)2,mp-30160,-0.398912776428572,105.07048456420824
30957,CaNiO3,mp-754103,-1.7527440570000004,73.65296194591292
130369,Be2Nb,mp-2028,-0.1899812333333332,159.21353686242503
65803,HfCr2,mp-569624,-0.08375930083333216,189.5784962752444
4525,LiHfPd2,mp-867119,-0.629399045833333,116.7143255394692
26690,Si,mp-165,0.013417249999999825,88.9707568201995
47857,Li3MnO3,mp-756408,-2.100974783990148,76.1348377975447
121359,Mg13Al14,mp-12766,0.06405819148148148,48.90512985195026
3572,MgAs4,mp-7623,-0.22555652550000005,43.227628197354264
95152,ZrSi,mp-11322,-0.8970122974999999,142.09123185831288
111502,ScSiPt2,mp-13572,-1.1215783825,173.34408089251122
76657,Cs2CoS2,mp-561830,-0.944371399422414,16.97758829668401
109389,ZnPd,mp-1652,-0.5762806899999999,139.09419386694313
65953,TiPbO3,mp-19845,-2.689368039666667,170.98113038374203
86647,Ti2MoPt,mp-865803,-0.6417984816666653,192.5305142937992
32504,BiCl3,mp-22908,-1.3919113037500002,4.21862241742805
139045,SrCuO2,mp-37514,-2.0637266366666664,110.21963934853525
119858,Li3VF7,mp-759421,-3.1010923425,34.44857771596265
82998,SrAgP,mp-10667,-0.7524250172222224,55.94812668976756
131828,Rb2S,mp-8041,-1.1610664860416666,15.149400893864435
109567,TiNi,mp-603347,-0.37845085166666603,103.44069846630163
69432,Ti2MnFe,mp-861983,-0.3384515186494266,179.95828633955585
68052,MgNi2Sb,mp-30773,-0.2860065600000006,110.49244649905279
126616,Ba(MgAs)2,mp-8280,-0.9450568880000002,44.99912184150255
39512,PrI3,mp-862800,-1.69336727625,2.711179764124823
67636,MgBr2,mp-30034,-1.8637709016666666,14.85997665681308
11151,V4GeSe8,mp-8689,-0.9452497949038468,55.16449253663524
14972,TiMn2W,mp-865656,-0.24186160979885152,243.14982737740755
98159,YSn2,mp-13010,-0.6100994105555557,58.12255691147759
110180,MnP4,mp-569522,-0.3612154429195414,137.20388626889257
134195,Zr3Fe,mp-31205,-0.10947078500000096,103.85077402544015
48205,Al2CdS4,mp-5928,-1.255045928928571,38.6860647947247
93372,LiAu3,mp-11248,-0.36616702583333316,98.80925267935389
117823,GaP,mp-2490,-0.4098386754166663,76.18684986504738
37740,La2Ce2O7,mp-755450,-3.894162401818181,129.61655847027058
107217,V3O5F,mp-753016,-2.5343952686111098,118.71197459908237
128086,Ca(AlZn)2,mp-30175,-0.28946907599999994,61.38686137159882
946,Si,mp-16220,0.3394484526470587,61.90449498591573
48551,SmCo5,mp-1429,-0.0661924333333334,144.38372474559935
90203,Zn3Sn,mp-971950,0.12423259374999995,51.53532515438931
50420,Ca2SiO4,mp-674334,-3.355497050357143,87.22055559720025
1795,TiO2,mp-2657,-3.4644165661111117,209.1035318871827
115978,Ti2SnC,mp-3871,-0.7226938504166665,135.39634723496948
144290,Cs2WBr6,mp-541753,-1.4665058389846746,12.1170600240985
61914,Nb4CoSi,mp-10003,-0.34086904833333403,191.23271163881884
72874,Na3PS4,mp-985584,-1.1220058294360626,22.476869374615355
48254,TiP,mp-739,-1.181894890833334,138.5426345961132
10711,RbTiBr3,mp-569807,-1.6874682756666672,16.329583788124932
47674,YFe5,mp-11385,-0.042560901111110404,104.77274148414912
59137,MnNi2Sb,mp-5124,-0.16690797448275863,138.15259725365314
30398,ZnCu2GeS4,mp-6408,-0.6990636896875002,73.11904890200029
78304,CuAsO3,mp-776320,-1.260996189,53.19919788725181
30482,YOF,mp-10219,-4.2197649563888895,123.94098595092444
6087,NiTe,mp-10264,-0.40172410250000024,35.846278091362116
120762,LuFeO3,mp-22588,-2.8795482775000005,179.33233199290618
60552,ScCl,mp-27507,-1.7319777225,14.183762102517516
105993,MgHg2,mp-11464,-0.12149392666666659,40.62773366861524
59929,CaZrF6,mp-1025456,-4.146771990625,56.986150916817685
74981,PCl3,mp-23230,-1.1614409508333337,0.819127079663521
72963,Mn2P2O7,mp-18721,-2.5820079247753385,111.57028181408106
91055,Fe(BW)2,mp-613327,-0.3766708986666657,318.5346863130857
64083,GeSb4Te7,mp-29641,-0.3660261020833329,21.120277829879775
110348,Fe15Co,mp-18695,-0.010998422187499912,184.15105912007328
97184,Na2ZrSe3,mp-7219,-1.5283195575224493,34.79634221974844
48934,HfSiPd,mp-10457,-0.9571370866666662,169.3478393303961
62367,AlGeRu2,mp-867904,-0.4954061537500003,218.78262594465167
63996,BaPd5,mp-2606,-0.3390882133333329,99.01010274559815
107361,MgZn2,mp-567626,0.004939556666666493,47.85606781070773
32553,Sc(AlC)3,mp-4798,-0.3469094971428563,166.44030295641966
137682,ZrTe,mp-569544,-1.0535502625,93.28310326629675
141309,Mn3CoO8,mp-756482,-1.5473564207327601,88.45289340565233
113849,Na(WO3)2,mp-37307,-2.180213036283525,213.6469729680442
29769,ScMnSi,mp-9550,-0.6005882898659023,117.94860825859249
144525,V3As,mp-292,-0.4514377787499999,193.92734321560891
143432,K2PdF4,mp-28163,-2.4208131051428574,23.981285082657518
36173,NiPS,mp-505820,-0.520934839652778,118.2835328337613
132491,ScGa2Ni,mp-11401,-0.646263607499999,106.51954382432233
73017,CdO,mp-1132,-1.3647115625000001,126.23624016249624
104870,Ti2Cd,mp-30501,-0.0695998388888898,91.40699818101167
109685,FeAgTe2,mp-29659,-0.04524205500000041,50.72992385555516
137555,InCl3,mp-862983,-1.4415949400000003,5.53077029386347
110506,Li2FeBr4,mp-22967,-1.3617790895238093,20.321978360271338
82235,FePO4,mp-540111,-2.3295112026388893,11.734197736057311
44676,BaNiO3,mp-19138,-1.8198027519999997,84.90226064234677
12795,CaZn2,mp-1725,-0.29891643333333323,44.504586067954975
96114,Nb4N5,mp-7927,-1.1516391572222235,269.5240152050346
30543,Ca2NbN3,mp-1029832,-1.2387136974999997,79.3581733624887
21910,GeO2,mp-470,-2.0732810433333326,205.74341002693723
78788,YMg2,mp-11499,-0.08584645472222263,42.844397059109404
84587,CsNiCl3,mp-22950,-1.5777615845862065,14.6735495144808
97610,NiSnRh2,mp-11519,-0.25159581625000094,193.74512046080855
72433,YSi,mp-9972,-0.816633433333334,89.41816126123092
51133,Ca(AsPd)2,mp-5166,-0.7413167119999997,87.01007818638905
18804,MnPd,mp-238,-0.1997200489655171,133.58169696805862
101704,BN,mp-629015,-1.457822842083333,100.56245127881256
22625,Li3VF8,mp-753533,-2.9404136849999998,13.673426590743865
19828,Sn2S3,mp-1509,-0.6977255598749998,16.920249903618327
113987,Li5Mg,mp-865604,-0.021586844444444253,17.22472730415421
98557,TiZn2,mp-30882,-0.19797302611111137,105.9856529266008
3908,MgF2,mp-1249,-3.829413601666667,94.59107175031545
104561,SmI3,mp-863028,-1.6796025937500003,2.839897243851486
91607,Fe,mp-136,0.09779316000000016,294.0723965229885
59053,Ge,mp-78,0.23260063499999983,62.207964963205285
139652,Pt3O4,mp-601193,0.240078461428572,205.82027005135362
30610,LaSi2,mp-2062,-0.6148545583333339,77.53835498983369
133169,NdFeO3,mp-20407,-2.7764093670000003,165.89718200773783
120853,Na2MoO4,mp-18852,-2.1551916040147794,50.171581834638395
136148,PdPtF6,mp-8547,-1.5998556368749997,35.173856045465854
75400,LiVF6,mp-757163,-2.945039713541667,26.853228723472068
75597,NaVF3,mp-20572,-2.904573306810345,68.55425190670542
8220,ZrBiO4,mp-752685,-2.6097999625,97.18531810501628
58242,Na8CoO6,mp-764233,-1.5071398794942534,46.519934503753284
137438,ZrTe5,mp-605,-0.8689723233333334,11.350107473369807
101389,Ru,mp-8639,0.10724388500000082,309.33184246145674
19953,ZrO2,mp-776404,-3.8047884470833324,195.3245363740574
70709,ScPt,mp-892,-1.2274957424999995,135.97902571019176
78995,CsAlO2,mp-14069,-2.849798509482759,92.88616797417735
128100,Sc2RuRh,mp-862372,-0.8195011787499995,140.40156626628735
1178,CsAu,mp-2667,-0.3072804939655174,10.158565627165581
93774,GePt,mp-542640,-0.46864945,142.84605565269953
78778,Mn3Pt,mp-30785,0.06396516405172292,89.52702446759864
44274,MnNbO4,mp-754809,-2.557473098821839,152.36579333713513
34570,TlAsPd5,mp-11873,-0.3547938483333338,136.269461046125
111198,KBrO3,mp-22958,-1.0488314971000001,15.267738985757521
111629,Be2CuPt,mp-865869,-0.4596999250000007,171.23800902926916
95689,Y(SiRh)2,mp-3441,-1.123406163333334,155.50722375348772
76040,SmFeO3,mp-20243,-2.8038061815000006,170.33039045850484
112210,Cu2O3,mp-771359,-0.8331290082500005,159.26943807835443
22714,FeO,mp-18905,-1.0713510225,180.33516262929663
75206,RbI,mp-22903,-1.6958277512500002,9.655227124775173
50162,CsPbBr3,mp-1014168,-1.627910923086207,16.789714621633255
115903,NbSn2,mp-1046,-0.13910880166666573,96.01663267125986
122956,Ti3InN,mp-21233,-0.9320973869999989,153.11258002767673
70210,S,mp-557559,0.04054244151785724,1.2340663258895341
18651,MnCoGe,mp-21286,-0.20152079097701284,144.19890236086246
137833,LiFeO2,mp-755709,-1.9436609058333332,125.8727739945993
79679,Li2TiF6,mp-7603,-3.5316194999999997,49.282476662377256
7247,Te2Mo3W(Se2S)2,mp-1030827,-0.8796047871354169,16.993759423953577
144555,Zr(NiP)2,mp-10259,-0.8397089933333334,177.3996732813127
104012,PdSeO3,mp-545482,-1.0328939854687498,17.68595751482942
130288,MgZr3,mp-978270,0.033868034999998464,79.91078008405489
54376,TiO2,mp-1008677,-3.1997306077777785,250.27314530800237
63148,Ga2FeO4,mp-690544,-2.0642677575,173.01211328525926
48292,YN,mp-998899,-1.3961290458333337,142.17164078656953
77435,Cd2Hg,mp-11299,0.015051371666666776,37.351208290551675
17550,HfAlCu2,mp-10887,-0.3285648850000005,134.71177223650614
22815,B,mp-160,0.0,211.34898436347413
127030,KFeO2,mp-759749,-1.6873217313749995,43.20397625626324
52603,HgTe,mp-2730,-0.3794617574999999,36.43318735975454
23600,YMgCu4,mp-13172,-0.23412124277777777,92.04632059341917
73539,Sn3Pt2,mp-30846,-0.5030250160000002,101.78141582167831
40908,ZnAg3,mp-864794,-0.028340340000000186,89.82389912536479
118987,Sc3BPb,mp-10133,-0.5203631508333331,79.3211644455473
101639,MoS2,mp-1018809,-1.2002825070833332,25.462174647555926
40021,Ti2Cu3,mp-622570,-0.12033253733333353,133.111216476947
8507,ScCuS2,mp-6980,-1.5333770778125002,83.73840556970833
84784,Nb2O5,mp-776896,-2.9749839489285717,55.6008629410011
97619,Y(SiAu)2,mp-570452,-0.5311787813333332,116.10263988390423
16881,Li2CaGe,mp-865986,-0.42275544541666665,37.5095314910382
78314,KPt2Se3,mp-14796,-0.8798517033385416,25.78817018390682
112700,Ca2Cu,mp-12614,-0.11127504499999989,24.802372048674744
22982,NaBO2,mp-3889,-2.6126217589295977,45.81722153249287
138327,LiVF4,mp-754766,-3.148553248888889,28.383437921915274
51271,Cu3Si,mp-972828,-0.02493446999999982,139.37460544991714
63002,ZrAlAu2,mp-864878,-0.5340977549999995,134.5736521646653
108713,HfAlNi2,mp-5748,-0.6364737125000008,164.50448359337406
116160,RbCoCl3,mp-27707,-1.5303199874999998,16.208524148972778
128742,TiI3,mp-23264,-1.0890178670833333,4.131581386719836
134082,HfCuSi2,mp-20401,-0.43776628375000026,135.42255406061855
81753,Ba2PbO4,mp-20098,-2.3690410357142855,85.42012996976737
109756,Fe3Pt,mp-1649,-0.07298450750000018,180.23169292572197
46260,ScCuSi,mp-15322,-0.6450518072222222,112.13474378428722
95050,PtCl2,mp-567484,-0.7374227433333331,7.891857015536689
108832,Sc2Ni2Sn,mp-3363,-0.6122041119999999,102.32018604644958
135904,V3S4,mp-1081,-1.2803014046428578,98.16222095315385
127600,Sr(SiPd)2,mp-568402,-0.7191921473333338,89.61598787689442
113106,Bi2Pt,mp-569581,-0.21049858666666665,31.079722749327157
138846,CeN,mp-2493,-1.6789857349999995,146.4132855815099
114678,CaAu5,mp-568920,-0.40725528666666655,98.86852561992967
82396,ZnPt3,mp-30856,-0.3126890824999995,213.41622261264564
133633,Al2O,mp-8022,-0.1415348483333331,59.31448414122721
145842,Mn5Si3,mp-1111,-0.32188884745689883,148.0744846842858
125680,ScInPt2,mp-20521,-0.9114386112499995,139.7869901564395
9487,CdSO4,mp-8459,-1.830758822187499,57.88351004171194
127364,TiClO,mp-22992,-2.7301225144444445,21.381913540032897
133730,LiTiCl3,mp-675460,-1.761458777333333,35.94155434810992
13245,C,mp-568286,0.006304037500001414,118.46287270243222
136996,GaN,mp-2853,-0.17777026625000047,209.3036695917035
114635,NbGa3,mp-1973,-0.3084654681250001,122.30423291592672
97052,Nb2Pb2O7,mp-754711,-2.4923172745454547,144.74482181568283
80060,ZrNi4Sn,mp-30807,-0.3745731258333341,164.59003576529676
5033,CsN3,mp-510557,-0.41812331698275784,14.535117795932358
30897,Na2LiAlP2,mp-9719,-0.6366017501005748,40.22427523234026
79885,AlAs,mp-8881,-0.4782204924999993,67.35960099313544
62903,Sr3(AlGe2)2,mp-571216,-0.5011749455555558,45.76345394909479
114615,Al2O3,mp-754812,-3.3737164299999995,130.38903972043434
106989,Sr2CuO4,mp-754322,-2.1865934919047616,105.69462070908162
92674,Na3SbSe4,mp-8703,-0.9577211398787719,20.308712019311592
43261,CaInPd,mp-620571,-0.6981105741666666,60.60752284063217
130681,NiSbS,mp-3679,-0.5466691068750004,95.75330146543774
66085,HfN,mp-1001916,-1.655843422500002,196.59702621928102
69473,YCoC2,mp-4248,-0.3372983879166682,167.26120358804081
27955,Lu4C7,mp-15178,-0.3257143722727278,126.4002349078632
38130,AlAgSe2,mp-14091,-0.8552725878385417,51.884670871205415
78007,CaLaMn2O6,mp-39689,-2.7749981045862073,151.0713033624973
79278,Ti3O4,mp-755875,-3.132689601428573,178.42668402856506
65886,LiZnGe,mp-569788,-0.24967411166666686,51.37956679388117
41630,YRh,mp-191,-0.8520034533333334,108.73310368338917
87220,LiBePd2,mp-862312,-0.5522386020833334,123.36262311003675
76811,WN2,mp-754629,-0.4367953522222226,103.13325971977284
76799,SiPt3,mp-21163,-0.48282834624999893,197.53703278896165
80798,Eu(MnP)2,mp-21474,-0.7241177375057475,91.99665076737882
128245,KAsF6,mp-7569,-2.745592459125,17.249130199710883
116497,KCuTe,mp-7436,-0.730387311,28.80313787182834
78719,CaO,mp-545512,-3.2409813475,86.613781386368
14829,NaAgO,mp-1008866,-0.7549204027394634,58.54058671614143
70180,K3BiSe3,mp-28980,-1.1540401769330362,12.36371862863274
126767,LaBiO3,mp-768310,-2.733831392,60.77930331785456
3091,AlCr2C,mp-9956,-0.1732796324999999,188.81293460370034
88974,Y2NiRu,mp-865641,-0.3611854520833333,99.40449196798579
67270,CeScO3,mp-777413,-3.855780949999999,155.01051562286767
102185,C,mp-1008395,0.3331968825000011,402.68734363584633
80672,ScVFe,mp-631302,0.6781716050000005,50.885907365613676
63307,ZrVF6,mp-557686,-3.6788592556250004,72.3862476561931
19892,MoRh3,mp-30787,-0.23502710625000134,268.463354112688
38005,LiMnO2,mp-556415,-2.1579251584410937,102.31142536947544
23403,ZrMn2,mp-2116,-0.18741523528735607,179.5808884722969
74987,Ca2Si,mp-2517,-0.43444832083333357,36.71050402926868
145684,SiS2,mp-1602,-1.01128210875,5.518721277787229
50821,Fe2N,mp-248,-0.14996514277777825,243.80703182629608
135259,ZnRh3,mp-971779,-0.16938666749999953,207.83360616900688
57066,TbScO3,mp-31119,-3.957751911,164.21614208893993
8943,HfO2,mp-352,-4.019811100833333,204.5734326140447
54911,Li6CrN4,mp-1029498,-0.8149817509090909,85.347912191967
8603,Ba2ZnN2,mp-9307,-0.567599148,52.67844503562694
19641,RbNiBr3,mp-27409,-1.2659357359999999,17.077966222361546
109789,CBrN,mp-27989,0.1909753725000011,4.401662326410481
73307,Cu2SiS3,mp-15895,-0.6909523690625002,79.38397164614301
120374,Eu(AlGe)2,mp-20151,-0.4255995630000001,57.08433764874978
140194,LiMg,mp-976262,-0.03162350500000007,25.216746175695405
75888,ZrRh3,mp-229,-0.6734198449999997,211.03355121590806
94796,Sc2ZnRu,mp-862261,-0.49405599124999977,108.56190489362157
49235,Be2Ag,mp-603,0.026260046111110807,129.1497921169198
42763,Fe3Ge,mp-20711,-0.10489757125000043,176.82490458022352
19200,LiF,mp-1138,-3.165944597916666,69.88150378551063
144758,Ba2CoF6,mp-555162,-3.5039945944444444,58.17461081236973
62237,KIn9Co2,mp-571263,-0.057518840249999904,46.82494604690314
2183,Fe3C,mp-510623,0.05565027437499914,223.2378699486749
97211,Ba2SnO4,mp-3359,-2.7252458707142857,95.98002234430152
86047,MgTe2,mp-2604,-0.859484225833333,37.747459202728145
66544,CdGeAs2,mp-4953,-0.09115936624999987,51.93082304556236
55383,SbTePd,mp-10850,-0.5776493791666665,80.65300515616008
119987,Y2C,mp-1334,-0.29089405444444455,61.33892365102197
129666,Fe3Co,mp-601820,-0.04789794375000156,186.98162015139118
73973,ScAlCu2,mp-16497,-0.41294278624999947,107.84981115560129
130486,K2PdBr4,mp-27138,-1.4893861637142856,9.369522795738465
65787,BeVFe2,mp-867304,-0.2322811762499999,222.3334496306323
135826,Nb2Se3,mp-2330,-1.1240415434062498,68.82366050806314
66921,ZrAg,mp-11239,-0.12130619833333345,105.84720298473442
43431,AlCuO2,mp-3748,-2.4172544249999994,171.749505983082
105921,MoO3,mp-562561,-1.8861159362500004,30.38853419624662
43295,HfCuSi,mp-22489,-0.5826309316666674,154.8569335905166
61623,Sr5P3BrO12,mp-23141,-3.295318180992064,63.20083450141752
52312,CuCN,mp-35308,0.2380880983333332,27.77617592873957
54477,YScO2,mp-754671,-3.2617556879166667,114.60254254317951
22806,HfAlCo2,mp-5221,-0.5856782250000006,172.35030253550107
70526,Li2B4O7,mp-4779,-2.8050073281410253,40.573165734126974