,formula_pretty,material_id,formation_energy_per_atom,k_vrh
60608,YCuAs2,mp-10991,-0.8216525679166669,89.43167220965164
17481,CaTiF6,mp-27315,-3.9734046210416665,58.377072638997205
72550,NbCrO4,mp-675580,-2.729159823749999,201.8585145957473
47873,RbAgO,mp-8603,-1.003153564722222,24.295540537836477
59770,CoMoP,mp-22262,-0.615223426944444,257.8746636466186
117927,TiO2,mp-553432,-3.452512084444444,14.032549930496629
745,Ba(PPd)2,mp-8236,-0.7978344593333333,60.81283681987014
16284,Bi2SeO2,mp-552265,-0.41316914446874975,88.47619668179777
113858,ZrSiO4,mp-4820,-3.558760005,203.4995246655625
91099,ZrBr,mp-504594,-1.2709727537499997,18.801774007626
33792,LiCuF2,mp-753098,-2.256575459583333,54.80803439701343
141801,Ti2O3,mp-458,-3.3034396343333325,215.71230432270406
142747,Hg2Pt,mp-11470,-0.057873423333333264,83.47667636591281
142829,PbO2,mp-20725,-1.299647031666667,116.4959996650505
39465,Sr(NiAs)2,mp-4316,-0.6626934453333334,53.840752488934385
134300,SbRh,mp-20619,-0.5920839512500002,134.74995486787822
114707,LiMnO2,mp-37620,-2.145675582816093,115.59170582616441
142782,Y2MgCu2,mp-4901,-0.2384414756666672,61.91494205640943
103381,ScSnAu,mp-2894,-0.7608313133333334,89.99162679096901
52831,Rb2ZrF6,mp-13946,-3.66119475,21.943363972946926
32865,ZnGeP2,mp-4524,-0.20997244916666702,74.92337408902517
87110,SiC,mp-570985,-0.20444068074074076,213.39821609085027
57362,CuSbPbS3,mp-649774,-0.5878559419791666,21.20409088317451
4106,Eu(MnAs)2,mp-20128,-0.5082954861724133,53.03511694145274
13350,HgGeO3,mp-1017447,-1.173960573,172.14916517318505
81759,AlP,mp-8880,-0.6051529841666659,82.88970372433076
108903,Zn,mp-79,0.0,66.66661514966937
143468,Yb(MgSb)2,mp-10996,-0.7880707279999999,40.84195048423292
71126,DyFeO3,mp-22283,-2.852063185000001,175.78392907182828
16464,ScNiSn,mp-5186,-0.6283357933333337,99.52099250642728
75817,Li2CuBiO4,mp-754238,-1.543059442083333,97.89660182358602
62552,ScCd7,mp-31502,-0.10660823875000003,52.90146264675786
42252,VCl2O,mp-36862,-1.8713083062499996,15.07124857128101
107812,K2MgF4,mp-31212,-3.379465290857143,46.74536118128939
48761,ZrCl,mp-27440,-1.5900553400000002,18.530292141371852
81173,CrFe2Si,mp-1018068,-0.23806940250000075,241.35082538908807
145011,BaWO4,mp-556807,-2.671980056666667,82.40592307413323
128783,TiCu,mp-11364,-0.0531357916666666,128.36407212101147
48791,Ba,mp-122,0.0,8.856822896815668
123059,C,mp-48,0.0064835425000016045,121.96240266702121
73116,CuAu3,mp-2103,-0.017517884999999733,143.41731593859532
35967,V3Sb,mp-1555,-0.2631990025000004,178.28601398003286
77253,HfO2,mp-685097,-3.991189815,209.51212281432788
81317,Ca(ZnSi)2,mp-12137,-0.26480095800000003,70.02518373821702
8839,GeS2,mp-7582,-0.6463925137500001,21.100105666318747
137388,MnNbGe,mp-9951,-0.32408060208812295,180.12936852791879
89396,WO3,mp-19443,-2.1849477787500007,196.212937749998
110765,VO2,mp-20974,-2.4249485475000014,132.97349753553138
59030,Si3Pt2,mp-10744,-0.5175084210000002,160.93919913684795
129618,BaTiO3,mp-644497,-2.778006201666666,23.088407928837377
104211,NbZn16,mp-640041,-0.046278688823529444,84.89575160239434
55387,AlCuPd2,mp-866296,-0.6230447400000001,152.2911022612646
24928,SiO2,mp-546794,-3.2671791933333334,27.292054588354638
54016,P2Pt,mp-730,-0.6830153388888883,176.88639753670037
92783,TiI4,mp-541013,-1.0311894256666663,2.035494654277558
94672,Y2Mo2O7,mp-18265,-2.9326538612121222,177.127766359068
40632,CrCuSe2,mp-568587,-0.6012698811718744,76.68325319959882
124049,Li3Al2,mp-16506,-0.187246296,39.26641301720614
41180,BaFeO3,mp-19035,-2.1434141710000008,116.1230184283244
27813,GeO2,mp-733,-2.0770728672222223,37.73372548876233
43719,AgClO3,mp-775761,-0.41602280433333333,31.80412135455635
62141,CdBiO3,mp-755478,-1.442520735,101.4477186537199
46862,LiCuS,mp-861189,-0.8306549038194445,25.039550162307243
46718,Si2Ru,mp-569815,-0.5437345262500001,184.6267284405464
117576,Sb2O5,mp-1705,-1.7480340900000004,126.8502740691859
34573,LiZrAu2,mp-865924,-0.5358464333333339,101.93436574405408
8222,SrO2,mp-2697,-2.2054394455555553,71.39312610949834
15959,Na6ZnSn2,mp-568866,-0.1597267410344831,16.162927447543225
142571,LaTe2,mp-1329,-1.6797283466666666,52.31131033351881
26442,MgAu3,mp-30408,-0.40587791937499995,111.00008168724688
72560,Cs2SO4,mp-505782,-2.261607301998153,21.514062363545
76833,ZrAlCo2,mp-3909,-0.5209601550000009,160.92798277772766
64996,YBPt2,mp-5971,-1.0014106981250006,159.1699479099228
109479,HgS,mp-1123,-0.37900832906250015,49.693623714361124
87972,LiMgTl2,mp-864597,-0.1502490350000003,34.17990891384248
121332,Nb3O7F,mp-760401,-3.0201244470454545,189.0793326632746
29248,CsNa2BO3,mp-8871,-2.231306088600164,46.50428876377522
78943,Sc6FeTe2,mp-10445,-0.7170975299999998,67.7826186061366
101867,ZnGeO3,mp-8285,-1.9663922169999999,161.76459589622357
116993,CrN,mp-1018157,-0.6628011874999995,204.9732148360918
35337,Ag2PdO2,mp-5495,-0.4754684486666669,83.8691508199048
32051,NiS,mp-1547,-0.6109650048958327,123.75343978980385
106526,Sr(FeO2)2,mp-21926,-2.1484798761309523,70.77616452778733
24366,CdCu2GeS4,mp-13982,-0.6552389484374999,66.55126944608497
74210,CaZn5,mp-1734,-0.22792974666666677,61.28282437721076
83847,HgPt,mp-623,0.05674816749999989,146.98693057880809
103994,CaZrRh2,mp-861662,-0.5695847549999993,120.06478562769054
81088,Ca3Ag8,mp-646824,-0.2338832616666667,49.81201839280219
21876,MgRhF6,mp-9927,-2.569522476875,26.857751089519123
99536,LiBC,mp-9244,-0.37570868750000014,153.1506113327619
38703,Co3(SnS)2,mp-19807,-0.4944423058928566,96.97675638605143
40548,CuAgS,mp-5014,-0.2730919349305558,41.818623742464325
77255,NbRu3,mp-11517,-0.1328168237499998,270.5559607087714
40355,YAl3Ni,mp-4054,-0.5990709523333336,92.86125120305766
37844,YNi,mp-1364,-0.431824902083334,78.48631428415845
96697,ZrNCl,mp-632657,-1.8570445783333345,28.304830737751107
10361,C,mp-24,0.8330894637500013,387.49986606057087
42032,CaLaFeSbO6,mp-1043864,-2.7179547064999996,131.88042090365462
92135,Li3PS4,mp-985583,-1.1883385704166662,21.466189040415323
143065,GeAs,mp-7591,0.0623877600000009,62.41689492965662
106864,ScF3,mp-10694,-4.298431470624999,88.80316027434026
91011,NbFeSb,mp-9437,-0.4020751399999997,165.81885574707502
90140,WO2,mp-1047616,-1.6435635283333323,115.87017362735747
51911,Ti2Cu3,mp-30599,-0.07428856733333333,131.80637747243185
84333,CaSc2O4,mp-4056,-3.7836882207142852,143.76999665807034
115857,AsCl3,mp-23280,-1.1775401468750002,1.1355415578221342
83959,AgBr,mp-23231,-0.5970191770833333,39.56332551326631
130580,Sr2CuO3,mp-5456,-2.4368141980555555,97.822103641225
45385,TiOF,mp-752496,-3.394761034444445,155.38875500528874
110844,VCoO4,mp-771137,-1.8231918283333333,82.52077725740168
130017,BSb,mp-997618,0.27397275041666713,99.45536559330753
86595,Si3N4,mp-40793,-0.8044823871428578,225.63604806067707
46393,LiMg,mp-976239,-0.04875505166666697,25.63141097449673
62189,MoPbO4,mp-22169,-1.9304668050000007,65.14802527862895
108157,HfPd5,mp-865166,-0.6386600049999996,169.12816301885493
51956,MnCo2Si,mp-4492,-0.43691785948275896,219.29238803642332
26140,NiPb,mp-569446,0.08740727500000034,86.28983273885174
119513,ScCo3B2,mp-4938,-0.5463210047222221,222.54461993352055
19748,AlFe2Ni,mp-31186,-0.09435642249999976,148.21760070943785
76500,GaCo,mp-1121,-0.2818487862500003,175.82684398588628
100079,Zr2Ag,mp-2221,-0.10582540555555535,101.29042876656433
106076,RbFeS2,mp-5372,-1.0088308034375002,16.73509236977879
39248,Nb3Au2,mp-2123,-0.14748805600000026,172.89996533792842
90970,Mg2AgRh,mp-864933,-0.38046713416666655,89.06259445981763
3293,CaF2,mp-2741,-4.224281094999999,76.54559136565447
84074,P2W,mp-11329,-0.36267818888888925,189.09236875040574
126634,KCu4Se3,mp-10092,-0.5367587000039058,39.88508377800239
75891,Na3P11,mp-473,-0.23935823027298855,13.424926434519445
129840,MnZn,mp-11503,0.062493686034482465,115.28282008342345
27402,KGe2N3,mp-1029404,-0.29947553383333175,135.00303404593419
139966,Si5Rh4,mp-568792,-0.6924982261111118,180.9155858366937
21146,CdS,mp-370,-0.7504331415625001,73.14285899580705
130466,BiS2,mp-971673,-0.5917912854166669,22.840603376765493
57014,NaNO3,mp-4531,-1.367392630310345,27.39615012784223
67123,TlCuO2,mp-997042,-0.9500120933333331,17.065849564714664
75325,MgTi2O5,mp-28232,-3.4263178977083335,161.74600852663843
19687,HfZrO4,mp-754134,-3.877764362499999,204.35446127210307
26273,TiMnCo2,mp-865537,-0.2934188078160931,173.05234227432283
97923,ZrW2,mp-675,-0.14526104333333242,215.19171380671767
54608,LiAl2Ni,mp-862318,-0.47040982333333314,101.9982998266693
107402,TiCoGe,mp-22769,-0.5960383611111111,171.38864792732033
96062,Y(CoB)2,mp-3515,-0.561189748999999,145.60525618098006
29403,BaSi2,mp-1477,-0.3128972954166673,31.15701447431541
23614,Sc2GaRu,mp-862311,-0.6024813231249997,112.74014844779057
84039,Cu3O2,mp-1022728,-0.6034587459999997,110.3974756013457
40407,TlI,mp-571102,-0.8705479241666669,11.81756926226182
65419,KTl2Bi,mp-866169,-0.1974341849166663,22.7128359444312
8778,Sc2S3,mp-401,-2.2146405513749996,55.903222898854516
110552,MnI2,mp-28013,-0.7063810159770121,7.820381264131513
64941,P,mp-118,0.13895721625,1.3846873010710288
102255,Cu3Sb,mp-20900,0.032494468750000394,94.9821606881095
34751,InNi2,mp-21092,-0.01606076000000023,136.11485233950583
97876,GaAs,mp-8883,-0.3377175137499995,59.802679495294086
28553,NbZn2,mp-30798,-0.1617915674999999,140.67366449371792
79645,Zn2PdRh,mp-864839,-0.5148492624999994,158.90381890262125
65853,MnVAs,mp-20791,-0.2495298459770119,106.4751270301918
144696,TiTlPS5,mp-558747,-1.0303736857031245,9.922134029278343
138772,P3Rh,mp-1357,-0.5776477499999997,150.8848450839219
137386,MgTe,mp-1039,-1.0866360074999997,34.53574329054946
1142,Li2SnPt,mp-866202,-0.5052547379166668,71.69133197752184
81151,YCo4B,mp-10463,-0.29409526680555587,164.19038621651666
71771,HfMgPd2,mp-865049,-0.72522836,127.49693038124194
3797,VGaRu2,mp-865586,-0.4701166768749996,239.0124610734569
86532,MgPd5,mp-977059,-0.3342731349999995,142.33336192477776
36846,LiCuF4,mp-753257,-2.212385635555555,27.583004967779903
36854,K2Na4Ge2O7,mp-554107,-2.0550056793137927,46.07984911350923
34560,BaCa4(CuN2)2,mp-569603,-0.756654069318182,64.24258788550839
34311,CaSi,mp-1563,-0.5029676075000005,53.26869169249734
79523,Al2B2Ru3,mp-29674,-0.47121620333333325,229.82468843677367
110677,InCuS2,mp-22736,-0.7301020478125002,63.5761840419632
145368,MgSiRh2,mp-866087,-0.7560196600000006,176.74558384719126
48270,NbPt2,mp-11514,-0.6869240833333331,244.36058235933623
143366,HfGe2,mp-13683,-0.47152715,112.65903952724028
90022,Y2Pb2O7,mp-752849,-2.535942678939394,140.979228045681
144089,Sr8Fe8O23,mp-19004,-2.2631997197008547,123.60845577901873
104927,SrMg6Cr,mp-1016300,0.2258947666666664,28.365858572523617
10574,CoSe2,mp-1390196,-0.5787795007291662,36.93620311929088
130419,Zn3Rh,mp-865342,-0.33225068999999996,127.75346547093363
112816,BaMg2,mp-1935,-0.07198978750000003,21.589146578976294
36849,NiAs2,mp-19814,-0.25570177166666674,113.9029118926374
64257,LiInPt2,mp-862774,-0.5502796883333332,129.8466836575932
107202,ScO,mp-644481,-3.2404897350000006,174.44470400855425
36863,La2O3,mp-1968,-3.8497440190000005,115.74334503952201
120734,MgSc2,mp-864941,-0.03876781833333295,49.40543481079156
23014,ZrSnTe,mp-9289,-0.8209886766666674,81.7614777553766
28793,ZrIN,mp-580886,-1.5905212649999985,22.015149562179488
54671,Li7SbN4,mp-1029522,-0.5417296015277783,74.89310345757659
113603,ScRu,mp-30867,-0.5430774349999989,144.19768430924003
80776,BaCuO2,mp-752398,-1.9146426174999993,97.37738565096029
116132,RbHgF3,mp-7482,-2.23238786,51.34442310652017
124359,NaCuO,mp-7469,-1.2324577538505743,45.99313238962888
52128,Ni3TeO6,mp-19448,-1.3826438665000005,156.89774146496956
66282,WN,mp-1001828,0.018693197499999314,279.86792654654926
34889,HfO2,mp-775757,-4.010180912916666,215.91457805983924
10992,MnPtF6,mp-557668,-2.199606686616379,25.014112810502873
55321,VMoO5,mp-674948,-2.1071854071428566,81.04217757829271
87689,Li6FeN4,mp-1029739,-0.5467023581818182,83.54721277864866
56594,MgO,mp-776911,-2.9619764337499994,115.44113006039683
131409,Na3AlF6,mp-676512,-3.3820482144655175,49.70644714662366
77710,TiFeSi,mp-8648,-0.712096355555556,183.31232776574598
36050,SbRh2,mp-21359,-0.36012917000000044,169.21772862927662
129934,Li2ZrO3,mp-4156,-3.0402037461111107,100.86456357761199
26907,BeAl2O4,mp-3081,-3.3529182539285713,214.4747383395972
95928,K2PtBr6,mp-27691,-1.3512537234444442,10.00114255195372
48570,Ni4Mo,mp-11507,-0.08286009199999995,222.52061709187234
30682,Fe9Co7,mp-601842,-0.06777360468750082,190.37169053354665
46852,TiO2,mp-34688,-3.493553009444445,181.99662323729294
84870,Ba3SbN,mp-12814,-0.9259719760000003,27.072763501791286
71354,SiRh,mp-818,-0.7803849312500004,195.0860409957216
78101,Li3P7,mp-28336,-0.35957199533333367,24.338310668023375
32196,LiTiO2,mp-764648,-2.9499596316666663,142.74118528270117
99520,BC5,mp-1018649,0.25710252513888915,377.5530637104773
10073,CaAg2,mp-13270,-0.2950495877777775,48.25808095363985
22567,KCoO2,mp-18895,-1.432609267000001,54.411977798925236
19305,MoS2,mp-1434,-1.2013580954166667,26.742031817748902
63768,NbCrO4,mp-754908,-2.7145691916666657,164.88970355469593
65935,Be2Nb3,mp-11272,-0.134875928000001,165.1096820445519
122279,SiS2,mp-7583,-0.959543407083333,24.467348137066253
6480,LiPt3,mp-861931,-0.4161054508333333,179.46125519993737
143594,YInPd2,mp-568880,-0.8182552566666663,102.4280273040356
52150,YCuP2,mp-30208,-0.8696949120833333,104.72739012656908
15946,Si,mp-27,0.5315620000000001,82.80949877033666
41020,Mg(InTe2)2,mp-35777,-0.7205191485714282,22.503760857414434
103461,FeCuS2,mp-3497,-0.5149157865625007,56.07942968246239
99233,WO3,mp-19390,-2.18317011125,223.43885052712164
77559,VCo2Sn,mp-21469,-0.09214594874999982,175.00655020895294
68819,ScVO4,mp-19247,-3.0418699458333336,147.75267197280058
580,Zr(MoO4)2,mp-510456,-2.4660734954545465,22.327900713234612
25593,Cu3AsS4,mp-20545,-0.4428109496874999,73.92377967470618
79266,NiSe,mp-662,-0.4729776411718749,119.02981630886904
62701,NbCu3Te4,mp-991676,-0.5025324437500007,29.95029737483567
68926,AsBr3,mp-23317,-0.8630746506250002,1.2986328513469776
2685,Al2O3,mp-755066,-3.337808790500001,181.8576571628568
65560,YAl4Ni,mp-3602,-0.5569999844444448,92.43568196403356
53789,FeO2F,mp-758879,-1.2572938093749997,86.52545523464626
72492,WSe2,mp-1023936,-0.8707656282291664,9.162764703488856
1188,MgAsPt5,mp-865146,-0.47846120499999906,181.85766103958747
30549,Na2GeO3,mp-5784,-2.139358738850575,53.187350770384185
17117,MnGaNi2,mp-601285,-0.2952288788577597,157.77298786510738
106243,Zn(RhO2)2,mp-5146,-1.301455864285715,173.961478928745
28551,CuAs,mp-12070,0.05399666000000014,102.16214264950906
46558,PtF6,mp-505319,-1.4592217096428572,7.744025938035412
7123,TiZnN2,mp-1016108,-1.0288920770833334,154.42500214940674
95208,CaZrN2,mp-1029267,-1.664115605000001,162.32539673181037
75607,VCrO4,mp-752903,-2.2981137258333333,125.54209053872168
42761,Hf,mp-8640,0.07240820999999897,101.2427321681183
16782,CsI3,mp-22876,-1.1166632701077588,5.15602876125593
106738,Ti3As,mp-12071,-0.49770700749999985,125.9109253890548
105537,Pd(SCl3)2,mp-28174,-0.7008422806944444,3.5906793418411542
74729,WO3,mp-32662,-2.18109082125,149.77147985724042
26708,KMgF3,mp-3448,-3.5478566881,64.075877831704
64080,Y2Fe2O7,mp-1379819,-2.5915399516666664,166.54448809989952
97728,FeS,mp-505531,-0.7579213340625008,29.766048975331614
103607,LiNi2Ge,mp-16349,-0.3625631970833343,133.09765093519417
82818,K2SO4,mp-4529,-2.277885091660714,28.990833495282903
143997,LiCuO,mp-5127,-1.4329465902777774,71.56704809411241
125962,CeSe2,mp-1320,-1.9076539040624994,68.34387574499416
31260,ZnPdF6,mp-13983,-1.9820648231250004,36.410225465958554
105001,P2W,mp-11328,-0.3770991105555564,188.09355014013266
137725,NaMgPb2,mp-865107,-0.12336698663793078,30.633033012464317
64302,KAgSe,mp-16236,-0.822426855670139,27.015748652480376
73101,Zr3Ga2,mp-30684,-0.5468909720000006,111.81671007024555
55735,LiC12,mp-1021323,-0.006298209487177622,125.1349960237022
2743,CaCd2,mp-1078,-0.31820470416666663,40.28908396847433
101733,AlCuPt2,mp-12550,-0.6977324649999996,195.97828195310436
145836,Ca(MnAs)2,mp-5498,-0.4712070891724139,59.58813727729799
84474,Tl2SO4,mp-4112,-1.674121211041666,23.602214353610382
89266,HfBrN,mp-568346,-2.006199949166666,37.95415189945244
94106,TiMo,mp-998968,0.700724263333333,140.2289840922287
65024,Zr,mp-131,0.0,94.12933871706772
92145,K3Sm,mp-973554,0.5651636314999999,6.625919961552722
83918,BeCl2,mp-23267,-1.8374670666666664,4.251762581704225
120681,K(CoSe)2,mp-4668,-0.6670158995374997,39.63976310477099
119126,Hf2P,mp-504659,-1.0043121022222232,148.82637018383315
1940,MnAu,mp-12674,-0.010067458965517417,116.11827848409482
45882,Rb2NbCl6,mp-571513,-2.021177776111111,9.467985660725127
39684,NiTeO4,mp-755176,-1.3124008329166668,38.60684307811655
140039,NiBiO3,mp-998527,-1.3545721570000004,121.83073471832215
109168,DyCoO3,mp-22137,-2.6155286070000003,154.83550957496402
72943,SrAl4,mp-2775,-0.23230722333333348,53.235249254256445
94714,V3FeO8,mp-775001,-2.1993233091666666,6.673697948149201
45321,CsMgBr3,mp-29750,-1.9818030820862067,10.691206191613496
133042,BaCO3,mp-34195,-2.6482608819999998,48.004461905942414
76723,Li3(CuO2)2,mp-545467,-1.582540591111111,51.094181752733476
102215,ScGaPt2,mp-867923,-0.9556376131249991,148.30447549574808
37347,V2NiSe4,mp-569662,-0.7888026527678572,22.903358879341454
107231,Cu2S,mp-618991,-0.25742364104166704,92.99653340580791
75185,KCoO2,mp-752556,-1.441618934500001,43.86318746203794
84194,Sr(FeAs)2,mp-4488,-0.5342483613333335,77.85301701335004
143037,YSi2Rh3,mp-30028,-1.0212073577777783,174.08698247048056
75594,Ba3Zr2O7,mp-755895,-3.519514509583333,118.82670139806615
111670,MnCoP,mp-20249,-0.6425326829214567,198.61826057734044
137158,Na2MnN2,mp-1029605,-0.36221009370689644,47.952666763965745
16297,ZrCrF6,mp-555506,-3.507315691875,74.42442281202996
51068,LiGePd2,mp-29633,-0.6092348795833331,121.24083660578741
95856,LiNbRh2,mp-864631,-0.4422452208333336,174.73433227096703
123731,NbN,mp-2634,-1.2481991524999998,312.8519699733191
24308,TiAl2,mp-11809,-0.42709493277777827,108.17470106548316
13748,PbCl2,mp-23291,-1.5549896666666665,18.07301697218801
131051,TiSnO4,mp-773864,-2.7383046797222224,164.9539796760173
100453,VCoSi,mp-21371,-0.5758834350000003,209.4175809464527
27995,Sc2RuPt,mp-862371,-0.956615918749999,147.27142550810413
126113,Li2SbAu,mp-30404,-0.5858173516666669,53.49234464861986
78470,HfAl3,mp-568718,-0.39529859499999986,106.03289474390536
35142,TiSiRu2,mp-865681,-0.8903229508333332,242.90945083595312
125126,ZrTiAs,mp-30147,-0.9835340377777774,137.63969837161915
132705,TlCuS2,mp-14089,-0.47438865864583324,56.581574528961745
132202,BW,mp-1008487,-0.3561399545833339,340.84430422900823
100054,Mg3In,mp-569125,-0.08232372999999993,42.05145055054905
6733,Al2Ru,mp-10910,-0.7188397850000001,167.31725771938164
101725,CaSiO3,mp-4429,-3.4480273106666677,92.53968947711286
87832,Ca2SiO4,mp-4481,-3.4766319846428573,89.62173423048569
49064,Ti6Sn5,mp-20382,-0.3724171422727277,104.97869626797419
76395,TiMn2,mp-1949,-0.2721584388984688,208.80385468071592
44447,Al,mp-998860,0.09244398000000009,69.30077157491269
80637,SnPbO3,mp-504543,-1.7224393635,116.26164287079176
124151,BaMoO4,mp-19276,-2.6545541241666677,55.92695994721731
16076,TlPd3,mp-571030,-0.21529881083333358,132.92287241679077
98518,YAl3O6,mp-768572,-3.512928624166667,50.58706422008869
116005,K2Te2Pt,mp-8623,-0.9762814352000003,22.316816574640143
93350,InPd3,mp-510436,-0.43425166250000036,140.6237992270625
23772,SiC,mp-8062,-0.2036110399999993,211.38001705274064
83474,ScSnPt,mp-18198,-1.001830913888889,118.61305986986142
65415,NbInS2,mp-20621,-1.100629271562501,58.19407723790782
64868,Ti3SiC2,mp-5659,-0.8126256983333349,184.068645960595
41485,MnP4,mp-487,-0.36116065725287355,138.3383942136802
28787,ScOF,mp-4662,-4.078827054166667,103.76966130632854
120717,NaTi2O4,mp-29356,-3.1396710397454837,143.91873630654413
118931,Co(BW)2,mp-7573,-0.45845287266666757,334.51117488111936
97166,K(Cu2As)2,mp-8608,-0.18536469042857157,52.24311652510059
117661,LiMgN,mp-30156,-0.7575710144444449,95.51516116456935
144428,YAl,mp-11228,-0.418346848333333,59.58313417700904