,formula_pretty,material_id,formation_energy_per_atom,k_vrh
137761,MgSiO3,mp-4321,-3.2178071904999994,98.29129037217467
10315,LiFeF4,mp-776339,-2.7496679880555557,45.020725134477594
108054,HfNi3,mp-7285,-0.536107938333334,180.66679469365562
2548,TiO2,mp-1439,-3.4700952952777784,203.76288322732748
69785,Li2AgSb,mp-16238,-0.5061579808333332,46.937612885547075
97522,Y2MgSe4,mp-15803,-1.971404094672619,51.73031553943827
50261,Mg2Cu3Si,mp-10746,-0.22251137499999926,98.11869801373068
39578,BaC2,mp-10293,0.08043910333333315,39.72885553409674
2099,LiNiS2,mp-754727,-0.8722617811458333,66.64709750609141
52262,GaRu,mp-22320,-0.3009242062500004,200.96864514687485
72733,CuNi3N,mp-1017556,-0.0821793889999995,196.36542590944907
142187,CaCd2,mp-1444,-0.32861245666666683,34.42664601408254
45411,NbSeI,mp-23051,-1.01348541828125,41.23423938266187
93161,Al2Pd,mp-16522,-0.617258043333333,112.44675193895398
65652,MoF6,mp-557259,-2.5907687317857144,4.808122364509254
82,TiPt3,mp-569708,-0.8491846429761907,234.09992719893842
100103,Be12W,mp-568827,-0.10411265846153893,144.26034605899304
22473,GaAs,mp-15619,-0.20849407374999984,55.86368464213234
137783,CoAs3,mp-452,-0.3048444693749994,116.61926397793476
63231,Ca(CdP)2,mp-9570,-0.5631161293333335,56.867365163618004
14496,Sr2PbO4,mp-20944,-2.4668918511904754,92.260312007237
108968,Ti6Si2B,mp-11750,-0.6559841865740752,148.86533641590378
67272,MnO2,mp-19326,-1.8013748201436783,102.9221148985065
57173,FeOF,mp-754053,-2.1004506633333335,112.43623197201792
36544,Co3SnC,mp-20679,0.01487998200000078,205.74392374543208
135674,CaAl4,mp-1749,-0.19479040400000044,56.92250591389981
5318,CaCl2,mp-23214,-2.803379731666667,31.239589951572015
18882,ZrBeSi,mp-10200,-0.7225251083333326,138.2365385092137
79684,HfScRh2,mp-865041,-0.956983891250001,156.78635675890146
113427,SbPd2,mp-542106,-0.44366218333333346,127.120561261972
47366,Cs2PdI6,mp-569066,-1.0434103606513407,5.957448784639475
132867,YZn12,mp-30886,-0.18582913666666664,78.74341883932107
36386,CaC2,mp-684668,0.06726082833333417,58.02749466520689
3939,VN,mp-925,-1.1519160225,318.8910588062398
81599,NiSb,mp-810,-0.3666971850000005,113.66244464081885
110986,SrP,mp-7931,-1.0470363891666672,44.559557773533996
139293,V3(O2F)2,mp-765508,-2.6597974872222228,109.5117720309459
46793,Na6WN4,mp-1029656,-0.4146236258463951,54.64718771998319
6989,V2PC,mp-8044,-0.6863584845833319,227.1604322483987
88632,ZnCo3C,mp-10271,-0.017678176999999805,216.75384303563345
95971,SmClO,mp-27823,-3.4895558250000014,76.36869055740692
115762,Ni(BMo)2,mp-9999,-0.47840178966666824,296.23430479972257
86997,Mn2FeO4,mp-38856,-1.8846096258374385,148.83516784861098
9715,Rb2PdCl6,mp-28145,-1.5750569105555552,11.4991984653281
14381,HfTe5,mp-1168,-0.817208881666667,12.284307951115032
146002,Ca3SiO5,mp-37657,-3.4098882277777784,95.42980308933582
136140,Al2O3,mp-684591,-3.3011647952500005,139.10770946958422
139960,TiTl2F6,mp-10402,-3.057929566111111,25.194876154178097
12868,AlCo,mp-284,-0.6114748375000003,178.5980919188362
40937,Si4Rh3,mp-540791,-0.7076544685714288,179.5806291965277
43671,Be12Ag,mp-12665,0.11012356102564033,112.88681275542243
91281,LiVF6,mp-753212,-2.913178534791667,9.409521308231074
76253,CsCl,mp-573697,-2.2549501239655174,11.780408560018534
52493,K2ZnF4,mp-9583,-2.8654158394285716,44.23568054664418
73873,CaRh2,mp-571262,-0.41106054,122.64658627989147
12935,NbCu3Se4,mp-4043,-0.7510871249218747,33.167799224996116
67516,DyTe2,mp-1018679,-1.4270042783333334,59.13677368848814
102587,BMo2C,mp-4472,-0.245452746041666,317.0871520164444
89619,Fe3N,mp-1804,-0.15822943000000045,206.6535755116655
17010,LiTiS2,mp-9615,-1.674923768229167,67.91834794291134
138611,TiS2,mp-558110,-1.598624299861111,10.76495019837625
102077,CaCuF4,mp-12266,-3.0418713758333342,75.1744436446464
83221,BaCoO2,mp-19086,-2.051542814583334,78.73636087631766
24927,SiO2,mp-11684,-3.226712848749999,103.2635265292112
14494,PdPb2,mp-20599,-0.20497816333333319,66.04928373481636
12857,HfSiRu2,mp-866062,-0.7999733450000015,224.26870850491193
77184,Mg(CuO2)2,mp-1047145,-1.4805366178571429,62.83939362445582
84111,RbFeO2,mp-754958,-1.7003804593749994,72.18808559318538
119384,ScCo2Sn,mp-3791,-0.40969497750000006,136.24105926535196
37272,KCN,mp-35035,-0.37545039933333274,15.262217772876102
82538,LiRh,mp-600561,-0.18900691666666614,108.09496832534691
139733,Mg2SiO4,mp-2895,-3.2217519799999996,119.27750289864343
42040,NaCuO2,mp-4541,-1.3468941441379307,63.050535543979166
19096,AlAsO4,mp-7849,-2.4448375541666665,23.85696541209211
19126,Ga2Te5,mp-2371,-0.5410707707142858,14.435832212217537
119137,ZnSnAs2,mp-5190,-0.1922168287499999,52.21037274382173
43265,Pt3W,mp-862798,-0.2405382499999993,284.48757756923555
46043,CuS,mp-760381,-0.4325504815625001,77.26684309068003
74126,NaCNO,mp-546500,-1.2121598966379308,26.800055907420685
82333,Li(CuP)2,mp-7298,-0.31846062999999986,90.64732950968877
22417,Mg2Tl,mp-567244,-0.023546772222222186,33.939009858932444
91222,MgSc2Al,mp-977580,-0.2844106549999994,64.74224699690807
108164,NaCoO2,mp-755166,-1.4900772441379306,101.27449580303289
136348,Cs2WO4,mp-752508,-2.2557589101231525,20.884117865992884
96154,YZn,mp-2516,-0.36674400333333335,59.804960899356196
92727,Zn(InSe2)2,mp-34169,-0.8623610756250001,30.17187344874895
94988,VSnRh2,mp-570826,-0.32424050375000046,175.86797314604013
23598,CrPt3,mp-2515,-0.2505397975000001,230.81331229687447
111687,YNiBi,mp-30460,-0.6724000422222218,77.46699877274881
78803,MnV2Cr,mp-864953,-0.18683141198275877,231.0271868407126
133856,BW,mp-7832,-0.36767698583333264,341.9527301987795
86682,K2CuSb,mp-10381,-0.36094160275000053,17.408481581703217
132237,YCuSe2,mp-675902,-1.4529017178385413,63.48926240197581
70945,TiFeO4,mp-754900,-2.3577955197222216,145.84592267884838
72418,Hf5CuSn3,mp-31469,-0.3788190966666668,118.21462500236417
73159,Cu3AsS4,mp-3345,-0.44661870906250023,72.98846961114515
117062,Y2V2O7,mp-754039,-3.1465306280303027,125.06332626474418
25758,Ba3Ti2O7,mp-770118,-3.4060493284722213,86.12791418506129
120382,ScPO4,mp-4200,-3.3546772938888885,149.53460727001027
65581,WOF4,mp-752955,-2.684573229166667,12.996450345767741
21085,TiNi3,mp-1409,-0.48279514270833346,192.48387431628998
144329,Zr2Al,mp-12773,-0.3177060849999999,100.11249909224496
137198,Zn(InS2)2,mp-22253,-0.8496976674999998,34.17757585540538
12819,Fe(BMo)2,mp-20278,0.4688490093333343,197.19379361935097
135507,VFe,mp-1335,-0.12701822000000007,196.13011192427632
34106,TlCu3S2,mp-13829,-0.3789688982638886,43.113468981349286
81205,TiFe2,mp-2454,-0.28339347611111165,146.63249589742315
82516,SrSbPt,mp-8605,-0.9516063222222222,60.47375800915643
107008,Ba(MgBi)2,mp-29209,-0.6041493160000002,31.508252680591742
58600,FeBiO3,mp-547069,-1.4190990809999995,164.6531239678726
68513,SrCuSn2,mp-30598,-0.4237761241666669,46.55987668028172
92092,Nb4AlC3,mp-3103,-0.5197236987500009,215.5892488933839
138882,RbF,mp-11718,-2.8745384749999996,23.5960160017378
21680,AgI,mp-567809,-0.4457302308333335,4.591545266431266
649,GaPO4,mp-677335,-2.592269545138888,26.70547121713235
58603,Ti3TlN,mp-9964,-0.8262167736666669,150.40640088274267
56747,Be12Nb,mp-568912,-0.1484096776923078,133.15035604678616
18557,Ti3Bi,mp-866201,-0.08882453749999986,101.51537791833518
85745,Er5Si4,mp-568446,-0.7138863469444447,79.18963092839562
7242,NaLi2Sb,mp-5077,-0.623673753304598,29.41397618328125
16849,Sr(PPd)2,mp-3385,-0.8262206286666668,104.7184245689383
55075,BI3,mp-23189,-0.34734485104166657,1.3794691848105642
142991,FeSb2,mp-20714,-0.15600805333333292,86.81162960459702
125254,Sr2CoO4,mp-18724,-2.3412340183333344,112.4286059567221
482,MnFe2O3,mp-761716,-1.614192059655173,152.05191799016535
63792,CaMgTl2,mp-867266,-0.27864813166666647,37.726914115063764
21080,Li6MnS4,mp-756490,-1.3794300214028217,43.77537152755413
21968,CaSiN2,mp-1029506,-1.355491009375,112.84699880903077
24739,ZrMn2,mp-1014,-0.18506245612068994,156.91943947158455
29430,BaAlSi,mp-13149,-0.3641834399999997,48.63772527492205
105122,Y2CuRh,mp-865587,-0.5473076808333337,88.89542223129186
126130,NiAs,mp-590,-0.2853420075000006,135.01275520130685
7145,PNO,mp-753671,-1.4810983394444435,53.949908809885756
48464,La2CuO4,mp-36480,-2.984076969999999,119.21273051787571
29018,LiZn2Au,mp-867255,-0.37055097083333344,82.87856121127413
55640,SrNi3Ge2,mp-12521,-0.44588323694444415,89.2266988249291
14089,Li7VP4,mp-675045,-0.22548070222222152,30.67352909038695
33499,Sr5P3ClO12,mp-23121,-3.331533741825397,65.84006776539908
89637,InBi,mp-23313,-0.0011647224999999928,33.08707054264623
29027,CsI,mp-614603,-1.7354335264655176,7.3833805343456165
107208,Y(SiPd)2,mp-4822,-0.9522320093333334,132.0724519119962
80596,NaClO3,mp-23330,-1.082864028810345,24.632897916646506
58721,MgNi3B2,mp-571428,-0.382955824166667,191.72349977066543
24032,Nb2CrSe4,mp-7443,-1.0032731527678567,76.18578867018667
104521,Sc2GaC,mp-16733,-0.5348641231249989,85.78477766206488
126180,Fe3O4,mp-19306,-1.629588437142857,176.0885207531319
47938,Zr2CuSb3,mp-16421,-0.5614740750000008,91.01215214761548
114249,FeI2,mp-571122,-0.3531578699999998,8.931529027621252
39007,GeTe,mp-2612,-0.28291317749999934,47.572627376760074
125852,K2CuP,mp-8446,-0.3282122998333339,22.343411274717457
46176,Sr(ZnP)2,mp-8276,-0.6909898666666667,63.21221682447458
7530,MnO2,mp-25275,-1.7728960609770112,87.15417935123298
35958,Er2O3,mp-679,-4.057094096999999,147.3316272203997
46787,LiVF4,mp-755244,-3.205874213888889,66.22840032185117
14420,BaRuO3,mp-5773,-2.188222409333334,105.05208846632883
75962,Mg(PtO2)3,mp-8208,-1.379674843,189.0602179556989
56211,SiPd2,mp-697068,-0.6660063000000002,179.79053212190277
49467,AlF3,mp-468,-3.870369753125,45.11123794789187
92068,Ti2AlCu,mp-999079,-0.05697396916666708,106.87247753436972
127974,AlFe2,mp-985579,-0.14134606333333366,147.03448228204064
85669,Mg2NbN3,mp-1029408,-1.1352216349999995,119.05461238495366
80106,Sb,mp-10630,0.3283534399999999,58.23929262372906
63214,MnPd3,mp-31138,-0.22893815823275876,150.70063325097578
103935,SiCN,mp-8003,1.4305721150000004,207.36927269638375
143779,NbCrN,mp-20133,-0.8213525766666668,279.9856040000043
137481,NbS3,mp-562100,-1.1330739323437502,18.01188067081644
13714,MgAl2O4,mp-3536,-3.3743142292857136,180.37559125839107
57608,MnCu2SnSe4,mp-22400,-0.5598454115382543,53.60673431087907
85555,Zr2Al,mp-2557,-0.3580737666666671,103.22162502661763
98720,Cs2WCl6,mp-30234,-1.8152753750957855,8.324951679846807
119243,V2O5,mp-25279,-2.289021817142858,43.29603486306968
39707,NaAlSe2,mp-10166,-1.2511002140598055,27.96670148295238
60695,LiFeF4,mp-755554,-2.822563794722223,51.92746757267032
119561,RbBr,mp-22867,-2.0285919724999997,13.792487257245345
39450,YCo2,mp-1294,-0.17678997222222273,114.94345671068376
49597,CoSe2,mp-22309,-0.5965356532291661,99.19706859505206
74258,BeCN2,mp-15703,-0.5632059375000003,315.59252100414665
55707,GaSe,mp-11342,-0.825037827421875,14.86495908930513
99368,PbWO4,mp-504591,-2.0541413358333336,69.20985084182746
29937,C,mp-1008374,0.43652671250000097,319.97970439271074
123866,SbRu,mp-7565,-0.23734019749999913,146.58758484630397
130661,Li(FeP)2,mp-758741,-0.6048822759999993,133.44923666221138
90407,MgMnGe,mp-20354,-0.20149131597701184,79.68256465203086
141236,MoN,mp-2811,-0.5471153687499992,326.8661894758168
36875,P3N5,mp-567907,-0.5233771874999995,145.28052399739892
129647,V4GaS8,mp-4474,-1.2249207494230774,74.15394220115576
50174,HfInAu2,mp-574025,-0.3858894924999996,126.64873299849367
56060,Sr4Fe4O11,mp-21059,-2.2963005337719298,128.15230081115226
7983,CdP4,mp-7904,-0.062111685666666715,55.04982786946009
131374,Y,mp-112,0.003549638333333327,41.3464303882066
71275,NbSbRh,mp-31453,-0.40056579666666653,152.6105649228253
115869,Mg,mp-110,0.025801890000000105,35.636106174508384
92903,ZrBr3,mp-23247,-1.7991400431250009,4.967749798023712
19226,DyAsO4,mp-5632,-2.8497321691666664,126.7458567306533
69243,CoSbS,mp-5881,-0.5984971272916665,115.81959334387969
39616,NbZnRu2,mp-864840,-0.2579581974999998,217.80214291482233
77380,Ti2O3,mp-776456,-3.2333812790000005,212.61554517188517
852,NbInSe2,mp-20279,-0.9219959836718745,44.04368404031102
104583,Zr5Sb4,mp-570196,-0.7616906661111105,106.32173790599711
21906,Pd4S,mp-7819,-0.2783099216249994,147.25132229393782
91436,Mg3Au,mp-17783,-0.41525235916666653,57.1151878678389
95280,Na2CO5,mp-675271,-1.2254883660129305,11.916268182321037
23016,Ti3In3Rh2,mp-11073,-0.45938145499999994,121.81349613088793
23402,Al6Fe,mp-570001,-0.19584589499999996,105.968079153035
118228,Al2SiO5,mp-4753,-3.3748305159375,142.2930704611273
33121,HfSb,mp-13450,-0.6372772050000014,101.01118798754325
36248,SrSO4,mp-5285,-2.683281561215278,58.93062841864068
95291,Al2W,mp-12524,-0.03549791888888857,159.43553226049664
115545,Na2NiO2,mp-778404,-1.3092979761206898,33.59240431849594
98205,Sb2Se3,mp-2160,-0.5387494324062494,14.679406118404142
31515,ZrRh,mp-669917,-0.7970212475,156.34754891798457
138916,SrHfO3,mp-550908,-3.8000823663333336,156.17644193228216
23544,P2O3,mp-368,-1.960505652333333,2.7020277376567003
62390,BaNb4O6,mp-505517,-2.7281847072727277,185.07769522610175
38039,BaZnSi,mp-31147,-0.35156857499999994,43.93357082483322
30065,Be3N2,mp-18337,-1.218065926500001,213.65205582817788
84230,HfMoP,mp-7032,-0.9682760555555553,207.56504758573934
32173,ZnBiO3,mp-971706,-1.211798521,153.01138084969702
44970,CdCu2SnSe4,mp-16565,-0.6046019530468754,52.037641980067754
107096,Ga3Ge,mp-973875,0.08742118812500044,52.62964439790874
124662,La8MgAl7O24,mp-997590,-3.6305381167500004,184.22035616614977
72510,MoSe2,mp-7581,-0.9875726448958334,21.784824189586853
47103,RbAlO2,mp-14070,-2.8611657018749996,92.20431556598366
21183,Ti3InC,mp-20325,-0.544740582,144.96947844244534
93879,Na2CS3,mp-28810,-0.7232043887464084,14.210872323340666
97874,ZnSn3,mp-980905,0.1266083487499996,49.173255124268
86,Li2MgCd,mp-866194,-0.17437209416666666,30.178321811739867
49001,TbFeO3,mp-19853,-2.8452757140000005,174.98807745036865
20268,PdPbO2,mp-22367,-1.1496029675,83.94944115903215
63468,K3WF6,mp-555403,-2.8528907304,33.75436174579017
57590,Mo2N,mp-27953,-0.3606824033333342,299.9928504733263
44571,KZnAs,mp-15687,-0.4682385293333334,30.666750517111645
37032,SrSi2,mp-1727,-0.31834684222222204,53.513303934793
44541,ZnAuO3,mp-971700,-0.15399218100000028,99.52966427304418
138066,Ba(CoAs)2,mp-20563,-0.6156127440000005,69.43026096372952
63425,ZrAl3,mp-395,-0.48694256749999987,102.83887363481625
17750,V2NiSe4,mp-7823,-0.8603962641964286,83.71312148151304
1176,HgO,mp-1224,-0.6380533187500004,23.565021467619324
41746,BaSn2,mp-567510,-0.584302603333334,32.76231300663078
88302,NbSe2,mp-7597,-1.1550552048958334,22.203366544646563
59513,Cu2O3,mp-760432,-0.8280745090000003,92.62132009730863
64662,CdS,mp-2469,-0.8823721765624999,52.92445029157594
22474,TiMnRh2,mp-865523,-0.5704695178160915,183.0927040642758
119531,LiCuS,mp-774712,-0.8542956104861114,53.770386652708176
19873,ZrAs,mp-10054,-1.0757039125000007,116.1931785676132
99715,Mg3Rh,mp-542429,-0.35297379166666687,66.01066024888144
77586,KVF3,mp-557257,-3.0446895221000005,67.82435927611809
32629,CsCu5S3,mp-561033,-0.5418611013673369,45.63900831292122
81512,KZnP,mp-7437,-0.45802087377777784,36.08163998922588
21029,Ga2O3,mp-886,-2.268996668999999,155.3568246858536
43469,CoBr2,mp-30033,-0.6761313799999998,10.672257150939961
255,Sr2HfO4,mp-768305,-3.58409515904762,123.4101520677774
77956,Sc(CuSi)2,mp-6969,-0.469176873,120.0378125710939
34251,LiAl3,mp-975906,-0.08019274083333361,62.94339004207265
19459,Sr3CrN3,mp-12906,-0.9835752999999993,40.0650446784522
118103,AlAgO2,mp-9631,-2.3074725154166664,153.97198366991427
113679,SrAg,mp-30355,-0.31863303104166674,27.952443547198932
93868,YAlAg2,mp-865504,-0.3396472474999994,84.2043234480658
48990,HfGaRh2,mp-865019,-0.8942000418750009,189.3129068244944
122479,InSb,mp-10148,0.016849769999999875,44.77086592254315
145044,LiSbPd2,mp-861736,-0.6205636933333327,101.65950824740275
52144,Cs,mp-3,0.09639718206896553,1.680164851089951
22937,Li2Si,mp-27705,-0.18942857055555548,33.1849669694944
102947,LiAlRh2,mp-862297,-0.6695207933333336,148.44375202544555
61322,Ni3Sn,mp-11522,-0.18473026124999947,162.69267915683582
17222,CeO2,mp-1018659,-3.4990166266666662,147.5197340206703
10365,Al23B50,mp-530274,-0.054580308881278974,185.61598616629095
101110,Mn2CoO4,mp-766445,-1.8037892715517247,137.80100950532517
3502,CaAlSi,mp-3173,-0.36118794000000004,57.09319511761942
47189,Ba(MgGe)2,mp-7876,-0.47008420200000034,43.2080521551361
121471,Li5NbO5,mp-770649,-2.5421977483333325,98.60010686238432
27240,SnPt,mp-19856,-0.5723780574999999,127.2970273851258
79849,Cr3C2,mp-20937,-0.10026699049999906,319.8210813019853
47650,LiCoS2,mp-752928,-0.930830549895834,77.33224944802672
86143,LiBO2,mp-3635,-2.7379905412500003,59.90374249667995
61038,FeF2,mp-556911,-2.592161203333333,97.11733904102614
102829,MnP4,mp-755453,-0.32092329025287325,130.1683565533802
101842,CaCO3,mp-3205,-2.519519373,66.0576599585169
115348,MgCo3C,mp-20424,-0.06993092700000006,197.68399889908446
117221,SiPt3,mp-13363,-0.48901717124999866,205.09015159694792
100516,Cu3Si,mp-867317,-0.041439727500000245,141.31137913780663
56673,Ca5P3O12F,mp-6473,-3.421107072261905,82.62459716558755
29354,Cr2N,mp-8780,-0.5061162538888893,285.039262769158
41155,CaSn2O5,mp-1043016,-2.2002234268750005,122.46457943178385
80233,Ca2Sn,mp-22735,-0.6472885424999996,28.93709637982201
6854,CsMgCl3,mp-23004,-2.322267099586207,13.405680987380965
109446,AlFeRh2,mp-861953,-0.5959266374999999,193.02723758279456
145876,LiCo2Ge,mp-13914,-0.22438438708333308,152.2965063930462
6207,TiCu,mp-2078,-0.1358053916666666,130.49045126425693
142162,CsCu2I3,mp-23431,-0.8103225363218396,9.506340840370108
105036,ZrO2,mp-754741,-3.729399029166666,109.32403788264295
47155,B2S2O9,mp-1019509,-2.0889520868910267,28.557523545792577
114358,NaAlGe,mp-7400,-0.18936389218390795,36.21134569474974
19604,Zr3GeO8,mp-27888,-3.3855436679166666,196.35043794775294
87584,Mg3ZnO4,mp-753315,-2.7046986224999996,155.98892016414814
117696,MgTiN2,mp-1029702,-1.4689027283333331,161.6739145649617
41943,Cd,mp-94,0.013607910000000056,41.911368522635584
123405,CaHfN2,mp-1029359,-1.7751793199999994,170.58722054980245
100248,Ag2Se,mp-754954,-0.21949516189236049,23.015685990968386
57472,Fe(SbO2)2,mp-22265,-1.7078403925,46.588299454444396
13420,Ca3Ni7B2,mp-8308,-0.33624928486111055,103.45158482712202
74276,LiVF6,mp-753571,-2.9704845297916673,33.270714732151845
17986,Li2SbPd,mp-10180,-0.6619163316666663,65.6266771926299
7843,Sr7GeN6,mp-568436,-0.7330875435119049,60.83460891005571
80437,Yb2CdSb2,mp-569106,-0.8671135289999995,33.194785413007935
26632,Mn(CuCl2)2,mp-34328,-1.0100485668472905,47.36221751319083
144055,Mn2B,mp-20318,-0.3969210933429122,319.7207961154576
94907,Mg5Si6,mp-568306,0.06560282000000034,62.61080279458591
64103,ScTe,mp-10026,-1.388614015,62.823131213556294
22025,YMgAu2,mp-866171,-0.7804184091666668,83.97097706194876
82120,Li2CuGe,mp-676117,-0.3113931691666667,59.70273910204058
91149,Sc2GaCu,mp-862340,-0.46829101937500006,85.45231861961648
896,SrZnBi2,mp-29623,-0.4273577504166668,31.861362640403527
102238,MgTl,mp-11498,-0.036482921666666446,34.780205235937345
98560,NbRh,mp-1963,-0.4013130399999998,219.7922922619129
68313,RbAlF4,mp-5259,-3.638525150416667,41.94830124449321
146043,HfSiTe,mp-13963,-0.8367383583333338,30.99674071149504
62077,Ba3Zr2S7,mp-9179,-2.1383395534895833,59.58646426214274
73866,NaNi2O3,mp-753386,-1.2653015898419533,120.6000770007447
27438,MnO2,mp-25424,-1.7920713593103461,41.141357287654266
15133,YCl3,mp-27455,-2.744038531666667,6.075160643202395
143694,Ca(NiGe)2,mp-2949,-0.5466821479999993,89.8025764045678
34274,HfZnAu2,mp-866117,-0.43942596500000075,137.18965000205867
103069,LiHg,mp-2012,-0.37380411916666656,31.45311731218463
69819,CuAgO2,mp-675402,-0.5579823316666666,104.85389799064197
22435,Na2FeO3,mp-757147,-1.565247025517241,43.87481373089875
56487,Li3(CuO)4,mp-753081,-1.2999585954545447,60.33069250191106
132316,Na2O,mp-776952,-1.3590171249233722,46.90241442758048
117420,LiLa3,mp-976424,0.1477278254166663,25.325267696966456
110052,Ba9Nb10O30,mp-33581,-3.19255275755102,169.88448271800453
19887,ZnCo2Ge,mp-19971,-0.1428830987499996,177.22915385717675