,formula_pretty,material_id,formation_energy_per_atom,k_vrh
26544,Rb2CoO3,mp-780880,-1.4068375716666672,32.1860977369636
28920,TiRh3,mp-1152,-0.6179574708333337,230.4850315365345
130980,Cu,mp-30,0.0,139.37544786242316
119581,Al2Au,mp-2647,-0.42305551666666713,105.02192339002549
76376,Sb2Te3,mp-1201,-0.38320282399999994,18.335526726724357
92305,YAl2,mp-2322,-0.531332202222222,79.60995905875815
36601,CsTiI3,mp-567698,-1.2654604972528738,10.190171929974385
89735,HfAl3,mp-2614,-0.38655339249999976,106.73729037169262
85327,VO2,mp-547074,-2.4786257683333353,232.67835955236256
31139,MnGeRu2,mp-864936,-0.26885357823275946,227.6206219017353
146031,MgZnAg2,mp-11236,-0.165332985833333,75.9548791893048
10683,Na2SO4,mp-4770,-2.2107846966040645,42.52314118192129
25820,ScGaCu2,mp-11360,-0.3811806931249997,105.70200979212885
61412,NiMoO4,mp-19019,-1.7377011599999992,147.04122296579374
102525,ScAl2Ni,mp-12781,-0.6569232937500002,106.78765602940322
15990,Si,mp-168,0.16002296250000025,83.34494985486913
35948,FeGe,mp-22510,-0.1023310275,136.42237477613259
110322,Li7B18O,mp-675734,-0.4124928716666672,127.65580272013703
110591,PtI2,mp-28319,-0.41587691750000033,3.983605916957386
65767,LiCoAs,mp-20698,-0.502881727777778,54.31116436083511
79919,Al3Cu2,mp-10886,-0.15831442399999957,102.13981156070605
111825,MnNiGe,mp-21090,-0.22892120764367738,130.5938243268268
15543,Co2Mo3N,mp-542316,-0.21013538125000034,270.1761037099535
29055,Cs3Mg2Cl7,mp-568137,-2.2883837453160925,21.393725450557024
100198,Na2ZnS2,mp-1024067,-1.1858752308706897,30.460940258450016
11899,VBO3,mp-18946,-2.726639265833333,181.88622969006855
36766,YInCu2,mp-19946,-0.32364632916666736,81.47530959484206
34249,NiBr2,mp-27637,-0.7513379716666666,16.631264326525077
69767,CrAgS2,mp-560676,-0.5997283907291662,28.856828373276038
111438,Pt3Pb,mp-20828,-0.08149641750000036,171.87585967653092
74882,Li7Br3O2,mp-28592,-1.9232259338194442,37.81287655609755
84255,TiGaNi2,mp-30657,-0.5409975902083337,165.92942868101971
95581,YOF,mp-38194,-4.173209438055555,141.7904492432067
102514,PtS2,mp-762,-0.6847965887499997,21.08424017277847
73892,LiGe,mp-9918,-0.2808007504166663,39.85290402430013
25270,PdS2,mp-13682,-0.6052978995833337,22.365983932298615
61302,YAl2Ni,mp-13094,-0.6469080216666665,91.14958371313384
38417,LiFeO2,mp-756527,-1.867388451458333,145.16051427970933
56710,Zn(InS2)2,mp-21409,-0.8333146546428571,11.24009912599281
122267,Ca3Au,mp-30366,-0.4813268662499999,26.357760372130997
70985,Y2CdS4,mp-35785,-1.9546528129761904,61.66767644756736
91501,ZrGa2,mp-30683,-0.5669717249999996,99.7755364541222
130872,Na2ZrO3,mp-990440,-2.872602932183908,81.69394354166599
139119,W2NCl8,mp-570568,-1.3056483577272728,4.016360572955126
143773,BaCO3,mp-762225,-2.6703836379999997,48.320840143907475
114695,CuI,mp-569346,-0.33392133249999967,38.629158510586294
32998,HfMo2,mp-2363,-0.17089821166666752,199.93097317120618
42995,MnBr2,mp-28306,-1.1690421476436785,7.716209677781671
41798,Er(CuTe)3,mp-640885,-0.7101056764285717,53.534280446152536
91101,LuBr3,mp-866214,-2.214933989375,3.8698723744274988
34449,CrO3,mp-510421,-1.5112073775,8.531578788898306
837,AgF,mp-7592,-1.2340413595833333,62.13445163425135
10839,TiInAu2,mp-621348,-0.28661767583333386,122.25969984061537
55182,BaC2,mp-1735,0.09338587666666716,40.93294380803552
83749,Ca(GePd)2,mp-16260,-0.7147530320000002,83.27315146815616
72844,ZrI3,mp-23282,-1.2462586912500004,3.148966245990587
29964,Cs2CuO2,mp-540999,-0.2500363671724138,23.32585496676571
107884,Li2CoO2,mp-755297,-1.7426464083333335,108.12542602248058
78000,TlCu3Se2,mp-8800,-0.33790028883680573,39.43442031703312
49573,Sr,mp-139,0.005593553333333334,11.473976364466699
61392,NiSe,mp-571033,-0.46177845117187477,22.252551870538333
92510,SrBr2,mp-567744,-2.505127777222222,17.326620754590454
141556,BeRu2W,mp-862622,-0.20697665624999928,270.2477152531583
38843,Li2PdO2,mp-7608,-1.648949463333333,90.94025147931856
106128,NbSe2,mp-7007,-1.1541657115624997,10.375904645750946
39043,Ba(ZnAs)2,mp-7427,-0.6776153835000003,51.371733613139526
107353,BaF2,mp-1029,-4.163976054999999,54.42955274374926
115270,TiPt3,mp-12107,-0.8442408608333336,237.05709543431374
83247,TiCrP,mp-11580,-0.9514048344444446,204.30662971493126
9130,ZrSn2,mp-755328,-0.4265307583333329,86.5184111342651
111258,TiMn2Si,mp-865652,-0.5069648397988509,206.57246090126097
3422,AlN,mp-13178,-1.4691067750000002,205.15016981295065
136751,Ba2ZrS4,mp-3813,-2.1719731989285718,55.63184980050346
136400,TiGaRu2,mp-865448,-0.6202607677083334,211.34843583139133
17411,HfCr2,mp-819,-0.10347968499999875,190.51635946914567
72994,ZrCoSn,mp-30563,-0.4749728755555556,138.0208988854621
129232,La2Pd2O5,mp-560340,-2.572202741111113,129.65425505307434
102004,MnRh,mp-417,-0.17830269896551698,182.50224789381423
9936,NiO2,mp-25428,-0.6739509374999996,104.74505833486396
475,Mg(As2Rh3)2,mp-16043,-0.5239229154545458,172.60527461678524
23968,PbSeO3,mp-20716,-1.4557327054687506,35.29275734385921
56374,ScN,mp-1009750,-1.7899124499999992,140.83329085132806
59271,Cu2SnSe4,mp-1389664,-0.4511072691964283,30.89288792943509
55929,AlPO4,mp-5724,-3.1176947472222216,20.126451167974974
116469,CoO,mp-19079,-1.2474656125,236.15093274614364
972,VF4,mp-554799,-3.0074946069999995,13.715162525049006
65249,Tm(CuTe)3,mp-640889,-0.7034375895238095,53.67831427709585
76859,Zr(WO4)2,mp-18778,-2.555374265,92.4547173487096
69353,MgIn,mp-2313,-0.09480957999999973,39.757094643415854
76661,SiP2,mp-9996,-0.1251222138888887,12.178514118096514
286,Li(CoO2)2,mp-758122,-1.4617234254761908,73.95017325792841
27393,ScNi2Sn,mp-4536,-0.5516731574999998,127.64505402738257
45328,LiRuN,mp-1029251,-0.36604743277777746,104.82218518454991
58464,ZnCu2SnS4,mp-1025500,-0.7049959746875003,67.18809366023325
65905,MgRh3,mp-865611,-0.26418068250000015,181.92908713610635
88846,KFeSe2,mp-9884,-0.8901449756718742,17.791352644360988
24402,Mg3Sb2,mp-2646,-0.4392563559999999,42.20835622602337
88377,HfInPd2,mp-864734,-0.6887904774999996,145.23806585146923
68449,TiGaCo2,mp-20145,-0.5277307677083334,184.9154002246213
22923,FeSnRu2,mp-636599,-0.01635652374999985,200.6141261033711
66440,BaRuO3,mp-3597,-2.1816050769999995,116.95217089706247
69083,Be3Nb,mp-11273,-0.2357920512499998,154.5108077119057
76077,AgBr,mp-866291,-0.6343133270833334,28.459588057388792
129256,ZrCoP,mp-8418,-1.1509318527777772,192.6648961727996
17941,BeCo2Si,mp-865901,-0.5797351862500006,227.10765383471272
33616,Ga3BN4,mp-1019743,-0.6344686964583337,207.14710136063047
66134,ZrV2,mp-258,0.04885981999999937,140.20104388212866
91743,SrAl2,mp-1638,-0.2542581888888886,48.41168102003597
21965,Si3N4,mp-988,-1.299594529285715,234.448028275992
132329,Ti2Sn,mp-30875,-0.3331329372222231,115.36544744196686
94252,La3Si2,mp-10162,-0.6010327719999999,57.73036759599182
135609,BaMgGe,mp-754515,-0.5340345049999998,32.788559402366474
113051,Y2O3,mp-775906,-3.908096988916667,139.1100155300389
64170,YB2,mp-1542,-0.5636299249999995,163.6841934235114
37789,Li2CuGe,mp-35841,-0.31975112541666695,61.078153784089054
114711,Ag2Te,mp-1592,-0.20252250777777783,52.32031709028362
19784,CoAsS,mp-16363,-0.6128433410416664,130.60750973808865
31738,SrSnO3,mp-12867,-2.626471200333333,139.41557158159677
85022,TiSbRu,mp-31458,-0.45468591277777765,140.56026772588316
131592,HfB,mp-345,-0.4134977345833324,174.781247075483
20291,Al4Cu9,mp-593,-0.208091329807692,129.36641869308116
23844,Bi3BrO4,mp-866311,-1.6301398721875007,59.79841066318468
139572,CdTe,mp-685146,-0.6606796275,34.5369914559342
94973,Ba3GaN3,mp-1029573,-0.6453518589285707,37.43169700501923
37961,Ag2MoO4,mp-19318,-1.25401989404762,66.92641728236542
38516,MgZn2,mp-978269,-0.1330980316666667,63.30163125487138
72704,PNO,mp-36779,-1.4657935552777772,51.16865360405429
110353,Hf2Pd,mp-11454,-0.526719183333333,136.80169379923518
31283,Ga3PO7,mp-3107,-2.4292781255303026,150.12143327832933
113015,Be2NiPt,mp-866224,-0.6425602875000003,196.18578880407136
74061,SiMo,mp-972845,-0.264085605,198.9514344854198
102301,HfSnO3,mp-776083,-2.995080995,25.77620656210463
111330,ZrPd2,mp-1018102,-0.7549178633333327,144.58840314007887
74111,BaVS3,mp-4227,-1.6558971418750006,46.541399418910736
118490,BaAlGe,mp-13272,-0.47589047500000053,43.63479690162747
17213,LiZnAs,mp-9124,-0.5263031894444445,54.738221205061464
115409,Y3Si6N11,mp-1029652,-1.5101340775000012,142.53154775357518
75186,HfMgRh2,mp-865050,-0.8712557925000004,155.8597051325262
84072,SrSn3Pd,mp-30834,-0.5797029263333329,55.27781489716688
56345,Na2CrO4,mp-18779,-1.9886329933004927,39.313273768653104
30844,LiScHg2,mp-863659,-0.40084270958333335,55.60712156521066
136665,MnSe,mp-999540,-0.5932660751373922,51.468517107313815
118842,K2CuBr3,mp-571440,-1.5280710935000001,13.797622634999795
121080,Ti3Ga,mp-30672,-0.3213696256249996,117.99909681923657
23487,TiVO4,mp-761341,-2.960710096805556,222.56599947913847
132896,Sr3Hf2O7,mp-779517,-3.669111005416666,135.68503804423275
129697,SrCO3,mp-3822,-2.7003895938333335,59.765220774270915
119954,Zn3Ru,mp-1380,-0.15152305375000008,137.96917577023936
93316,YbMnO3,mp-22518,-2.7028123705862073,164.44121084354043
79452,Sc2NiPt,mp-862368,-0.8844118275000001,125.30871161274499
57742,Sn7Ru3,mp-22344,-0.2102279700000004,109.39972707264425
88933,Li2MgPb,mp-30758,-0.2559211916666668,30.80781751557091
27897,As2Ru,mp-766,-0.39712881999999894,149.33183858204686
96178,Sm2Ag2O5,mp-978518,-1.8746972753703715,127.31121690072374
35270,Ca(MgSb)2,mp-9565,-0.7875758060000002,38.9441658298539
41905,Cu2S,mp-12087,-0.21089948437500006,97.08813402794357
24252,Zr2Ga3,mp-30686,-0.6147974515000001,110.72866651895329
3105,Si3Ru2,mp-20191,-0.5700203790000004,201.52505182355384
31713,Ca5(InSb3)2,mp-649479,-0.8349642823076926,35.57674596293862
111451,Mg2Hg,mp-30719,-0.1950636883333332,44.53828204309812
21177,SnO2,mp-755071,-2.050463424999999,140.46998482148277
64523,LiPd,mp-2743,-0.42059543166666646,72.77562809219211
121581,Br,mp-23154,0.0,4.228235038670185
101319,Mg3Ag,mp-864952,-0.11877512541666668,47.84827331688561
140178,Si2Ni,mp-2291,-0.3526989399999998,150.25753827173952
125024,CaZnF4,mp-5104,-3.4095197208333334,67.52124434859753
74460,HfI3,mp-568002,-1.1637752350000001,4.352280129164771
28004,MnSnPt,mp-21418,-0.33362159097701155,107.85280209592997
88886,BaTiF6,mp-8291,-3.976583784791667,48.68661772754735
131376,Sc5Si3,mp-7822,-0.7414160018749998,89.09772475657587
93800,Sn(BiTe2)2,mp-38605,-0.4967115607142856,17.827440693289006
124652,Ga,mp-569423,0.011342974166667,48.61517973634186
28807,Pr4RuI5,mp-28736,-1.2906830360000001,15.617410379617834
53187,KZnAs,mp-7421,-0.47595171433333344,30.944994242506326
63512,Cs2HfI6,mp-29398,-1.5116763450957853,6.833179823627395
6993,CoOF,mp-755325,-1.6134777125,101.34508641400622
24647,Mn3GaC,mp-21313,-0.1205078892586215,208.4227508835546
28608,LiYF4,mp-3700,-4.040134309166667,78.21386851805732
24081,TiAl3,mp-998981,-0.3730441658333339,105.79834605251492
87955,MgB2,mp-763,-0.13033976277777745,148.49859627809508
58989,LaC2,mp-2367,-0.16150238499999978,92.14519875853433
98871,LuAsO4,mp-7644,-2.8583330241666665,136.2697386778608
25035,Nb2AlC,mp-996162,-0.505514475,173.26745000765823
108033,SiC,mp-582034,-0.20435629785714177,213.2248392219289
7230,CaNi4B,mp-8307,-0.303647313194445,132.89867591046038
24764,Li2AlAg,mp-31168,-0.24634081333333313,48.54353243053575
30747,Er2S3,mp-2234,-2.3664844755416663,69.01878465578369
22984,TlPd2Se3,mp-7038,-0.6273568508940972,21.1584923314412
55567,AlFe,mp-2658,-0.3268933949999999,174.59096083157627
133248,CaC4,mp-1022724,0.3247993520000009,143.16986570124863
45126,BeAlB,mp-4262,-0.05239148138888853,141.06826093131306
104793,Na,mp-10172,0.010302288448275743,8.735677436189157
29632,BaSi2O5,mp-3031,-3.3607228934375,56.13687508276483
15244,CoO2,mp-25234,-1.0726624083333338,34.48481432294751
105968,Sn2Pt,mp-19962,-0.4475965800000002,93.27129080771688
40446,MnVO4,mp-25321,-2.1761513888218396,74.29080391827121
32651,Ba2NbO,mp-34023,0.3130173312500002,21.76789840846869
117976,TiSnO3,mp-754246,-2.7546114736666665,26.12451077596608
36638,Zr3P,mp-22447,-0.8622263239583337,125.33916081328319
38361,Rb2Bi2O5,mp-975106,-1.553810961111111,58.95435316498917
81657,VOF,mp-754001,-2.7897521108333336,147.97524445142517
55003,AlAu,mp-1399,-0.39553814375000007,104.07011952010271
51604,Zn2AgAu,mp-31171,-0.1559856816666665,101.83429818810902
145711,Y(CoSi)2,mp-5129,-0.8029817833333326,145.1475627077899
72837,Cu2SiSe3,mp-15896,-0.5171906345052081,62.76283745979465
73055,MnTe2,mp-21893,-0.40452535431034536,49.266770894222134
30537,LiFeO2,mp-754977,-1.906172739583333,89.08520280800593
14216,BaZrO3,mp-1019544,-3.638994068000001,142.97578873689116
55189,LiVF4,mp-778044,-3.167245638055556,72.03823895636026
29860,NiBi3,mp-23179,-0.024311624375000562,33.724235944572136
141218,HfSiMo,mp-22258,-0.7075655925,188.5082290500559
119874,YNbO4,mp-5387,-3.5506122427777775,132.26260428281105
46357,LiBiPd2,mp-861905,-0.4421237858333331,79.3805269348168
61475,Li2GePd,mp-30080,-0.4044754954166665,64.29470357818698
6822,Ni5O6,mp-754806,-1.0683391100000004,124.78817608509883
15482,ZrSiSe,mp-4628,-1.2098894207812496,85.62623297576248
107878,SrAu5,mp-1831,-0.44961856444444415,89.59720439627304
70756,NiHg4,mp-570835,0.02511832399999996,51.47381071328431
79019,Ti2Pd,mp-13164,-0.44933218222222254,142.093083432055
127509,Hf2MoRh,mp-865130,-0.5300909400000009,174.01357768773693
101244,RbYTe2,mp-16764,-1.6022763197916667,26.870692264186673
92700,BaCoF4,mp-556101,-3.2564976466666664,56.29271161990966
47568,Si3Mo,mp-978525,0.29957787499999977,130.06874928658496
100448,FeClO,mp-540828,-1.4929603216666656,27.637901832532982
113513,Ca5Ag3,mp-31172,-0.2839842106249999,29.74065075631174
49112,Y2AlSi2,mp-10527,-0.7088575386666662,84.14344195046797
635,YBiPd2,mp-30465,-0.742447826666667,94.30696088720497
47327,Y3Al,mp-30338,-0.18503125249999997,49.33241557708187
90273,AlPd,mp-669546,-0.9048224711538462,150.3429387753318
132485,Hg2Rh,mp-11870,0.003783009999999957,87.74342096043317
73715,Ba3(AlSn)2,mp-7377,-0.5104767700000004,31.024652165115352
87642,LiNbO3,mp-552588,-2.8665096196666666,141.89539977302024
3112,Rb2PtSe2,mp-8622,-1.0734938459374999,27.529088478665262
120989,Ti3Hg,mp-2560,-0.03176320874999927,117.31325302936304
143688,ZrSiRu,mp-7544,-0.9167978016666672,191.45450892047108
373,NbO2,mp-754698,-2.797957476666666,166.4431696734675
125034,Ti3O5,mp-1147,-3.3799429918750006,171.36543837313633
102652,Zr3Sn,mp-30876,-0.36502742000000055,102.55043130477692
35464,BaBrCl,mp-1012551,-2.7892077575000003,29.071089078435925
55248,LiCuF3,mp-758052,-2.3426531081666666,76.00203317789806
69974,ZrFe2,mp-1718,-0.28044591166666777,147.15516774931496
92158,LiTi3O4,mp-867744,-2.8552056341666674,193.53664497161668
54586,YNi5,mp-2152,-0.31870939944444504,147.89596770160827
9143,Cs2HfF6,mp-13948,-3.7667481345402294,20.31402428649791
124605,VCrO4,mp-19418,-2.354943370833334,94.94605752588255
143947,V3B4,mp-569270,-0.8187663323809521,278.1737439840365
22549,LiFeF4,mp-776164,-2.8219765213888888,57.27235917592098
140023,Mn2Nb,mp-12659,-0.1429471344540237,232.70201395064328
49735,Hf2Ga3,mp-11441,-0.4952984094999998,116.67385006008323
82163,ScPS4,mp-6999,-1.2646060901388896,7.917623224816339
133021,Nb4FeSi,mp-22312,-0.278192918333333,191.25803900567718
121738,Zn(InS2)2,mp-22052,-0.8942924425,66.23070318820321
82886,Tl2Pd,mp-570896,-0.12444613555555506,54.09395869191186
12974,ZrP2,mp-1523,-0.9606213988888884,126.62017015879124
85076,La2SiO5,mp-5152,-3.7784767031249995,98.22177231580892
29521,C3N4,mp-971683,0.12086871714285778,68.07158491574594
98644,LiTiPO5,mp-6668,-3.0464693612500007,96.00202948539058
32743,V2CN,mp-676416,-0.7957062999999991,305.5792162861778
92324,LiMnO2,mp-25373,-2.061952142816093,115.72480177574684
101127,CuAuO2,mp-754126,-0.6751475750000004,143.11490951518954
41768,Hf2N2O,mp-776205,-2.4393751130000014,173.3432881385794
68277,Tl3VO4,mp-29047,-1.6741741787500004,15.921127431100727
33669,GeF2,mp-7595,-2.391526064166667,9.76469368296904
136280,P2Pb2O7,mp-22325,-2.417683241969696,46.23726259138742
142756,NbTe4,mp-20196,-0.6568648959999998,34.84384017272222
87586,MgCuAs,mp-4083,-0.35020389666666674,74.48033833405657
29602,AlFe4(CuO4)3,mp-1045728,-1.3209519540000003,180.15380854793787
39627,PdI2,mp-569017,-0.4873363916666668,5.9461316221650655
22858,Sc4C3,mp-15661,-0.4855017399999986,111.89057408170441
107842,LiVO2,mp-775331,-2.4670045070833337,134.20341917644024
115880,La3Co,mp-640095,-0.10140989875000006,34.761600312161306
129353,Nb3Te,mp-570751,-0.26326755249999856,168.99109924635297
9887,In4SbTe3,mp-685941,-0.4050068837499996,42.415089023328804
48160,Mn2V2O7,mp-19142,-2.3200847255329156,96.3951672686222
139218,HfInCo2,mp-864715,-0.28832209750000004,159.55952288039487
46014,Ba(CdSb)2,mp-8150,-0.6187674919999999,35.63203429381787
3769,NaCu2O3,mp-779328,-1.117586506091954,87.68351435249153
89277,CsCuO2,mp-553310,-1.3513275119827588,28.938501123895158
21505,ZrPbO3,mp-20337,-2.8432582789999996,119.3465890969253
8758,CaMg2,mp-2432,-0.10608171583333299,29.96806273422751
104443,Ba2Cd,mp-8093,-0.23778961666666673,14.27920045962476
95225,LiAlAu2,mp-862717,-0.5517612808333334,93.52984526996204
18285,CsCuCl3,mp-567366,-1.456817715586207,15.279795541329284
68059,LiCuF4,mp-753541,-2.1688444497222217,43.33142787108757
145839,Co2B4Mo,mp-10055,-0.4031019338095244,302.7186218876474
67074,Ti5Sn3,mp-20847,-0.3480952608333334,106.70005640639522
7920,MgAlPd2,mp-865152,-0.8337653624999994,122.76183516244686
16223,NbO2F,mp-752467,-3.1681933281250005,101.432091182992
46254,VFeSb,mp-567636,-0.2752233499999998,160.39251147040125
83948,Li3VF6,mp-765499,-3.1269273675,53.8173772188654
7783,CsAuO2,mp-997024,-1.1381685432327586,25.62846082805126
54465,NiHgO2,mp-754490,-0.9130295899999998,106.62274787309701
55107,ScGaCo2,mp-867915,-0.44392112562500063,148.74682097656012
84799,SrSi2,mp-496,-0.3152471280555555,58.3131005079792
87316,Zn3Cu,mp-972042,-0.08087976250000017,96.14196591854503
44832,TiPt,mp-998949,-0.9203474991666676,192.03257283516842
78233,Mo,mp-129,0.0,262.389752861169
18190,MgTiO3,mp-3771,-3.368974638666667,162.51605153482268
83317,GaGeTe,mp-8211,-0.37343924249999993,14.351306104645033
106190,RbCuO2,mp-7467,-1.357687516875,32.48779642566437
29431,FeAgO2,mp-18966,-1.2157479266666664,130.99416684915192
110076,NaTlPd2,mp-865126,-0.19085049497126416,74.97026852221767
129341,CuAuF5,mp-28376,-1.5492031932142858,28.44548963788668
82265,AlAuO2,mp-16613,-2.224651325,172.31435688874333
49539,MnO2,mp-33009,-1.7760038343103446,174.74050842277865
94841,Ca(CuGe)2,mp-4441,-0.37307010799999957,78.2551582863353
12809,Zr6Al2Fe,mp-11038,-0.30235227222222405,104.5713951118147
130752,NbAl3,mp-1842,-0.4286461524999998,126.8957257601125
9971,LiIn2Ru,mp-672340,-0.1472368895833327,101.9679183647425
108415,Yb(MnSb)2,mp-4836,-0.2597373951724144,37.044663312873595
145921,CoSb2,mp-9835,-0.2961382266666668,98.29731306200506
144672,InSe,mp-22691,-0.7424475686718752,11.447638445522209
126193,LiZrPt2,mp-865866,-0.8733546158333336,139.81015197500665
5148,Zn3Pd,mp-865357,-0.3647653074999999,112.5456779683813
11283,AlClO,mp-27863,-2.785189938333333,29.143565634384927
47772,LiCN,mp-30057,-0.38099382777777774,17.423697169538336
56790,Cs,mp-1,0.038769612068965564,1.7128080410464268
6341,MgO,mp-1265,-3.0533666124999996,151.49743407544798
124326,Mg2Al2Se5,mp-29624,-1.310096029079861,14.665118263043663
26170,CuAsS,mp-5305,-0.33926250104166716,67.23740206149395
117529,ZnSO4,mp-545756,-1.8249861955208335,71.6331705989848
39676,Br,mp-673171,0.6295637825,21.04475945140873
89850,AlAgS2,mp-5782,-1.0089082894791663,63.3971990967936
17413,ZrB,mp-451,-0.37374908458333334,158.25075793173994
13543,RuC,mp-10030,0.6484864024999997,337.72734937121743
33605,LiAlTe2,mp-4586,-0.925177128333333,26.480937189653492
52737,CaAu,mp-12723,-0.81060321,46.827744619527095
72255,SrHfN2,mp-1029396,-1.5903974491666668,115.78334929088587
139752,CrPd3,mp-865786,-0.07442674999999976,154.67644081345122
44780,ZrZnCu2,mp-11366,-0.22162148000000048,122.14204032077325
15585,Cd(GaS2)2,mp-4452,-0.9722776167857141,36.400831414285314
7978,WC,mp-13136,0.3250189600000013,365.3924732229076