,formula_pretty,material_id,formation_energy_per_atom,k_vrh
26394,HfBeSi,mp-12571,-0.6309166883333326,147.63645671216182
60496,P,mp-157,0.037400559166666625,20.880685744702234
51286,Ca3GaN3,mp-1029943,-0.9432459117857144,79.86605990156454
10206,BaTiO3,mp-5933,-3.483834864000001,139.83477041603152
22063,Cr,mp-90,0.0,259.2768408307951
29138,AlP,mp-997569,0.058483418333334036,8.30302238285228
11813,ScAlAg2,mp-31169,-0.332716924583333,96.5010379473617
47220,Cu2Sb,mp-1825,-0.04070932166666689,92.1522363417006
27917,CaInCu4,mp-570769,-0.16798246500000028,86.93687377619646
61101,Sr2PtAu,mp-862747,-0.7454835708333336,46.770631099264094
140823,LiAlPt2,mp-862296,-0.9390679333333329,161.4854323476162
45805,NiAgO2,mp-19284,-0.8021852379166656,124.37306394344373
71253,PtO2,mp-1285,-0.9266780216666662,201.94134958611326
92553,Ho2O3,mp-812,-4.03366768275,145.02167953030755
49845,Ca4HfN4,mp-1029730,-1.3247343322222223,88.39563996003551
84372,RbGe2N3,mp-1029403,-0.2160528095833326,128.64066905499965
112044,Mn3AgN,mp-10666,-0.1429203630919531,140.84301837282487
46511,BaAsPd,mp-9744,-0.930454381666666,58.70468899707596
92875,ZrCdPd2,mp-864607,-0.5867681949999994,136.42874221391628
143506,LiZn,mp-1934,-0.21867444916666678,42.356846796452274
70144,NbSiPd,mp-22722,-0.6632143424999993,194.8920000245626
29031,HfSiPt,mp-10456,-1.1031983116666666,192.14551169121927
50966,Ba(Cu3As)2,mp-505215,-0.27254120666666637,66.8679641318273
62991,CaAlAu,mp-568424,-0.6938783708333336,66.88735924278342
23643,CaCO3,mp-3953,-2.6883848470000005,75.86612530974455
50874,NaCSN,mp-6633,-0.580465199919181,17.84035669923103
107040,YAl3,mp-11231,-0.42492154916666625,76.31744647523323
117233,Ti(WO4)2,mp-1041750,-2.391802685757576,26.264122649051327
86207,MgGeRh2,mp-865162,-0.6170431337500002,161.24045079154186
82332,ScZn2Pt,mp-862704,-0.6682280837499999,125.15311154955583
107927,Ba2SbAu,mp-862631,-0.9846413525000002,31.433024652235716
30755,Sr3(AlN2)2,mp-17129,-1.1641277308333342,86.16192251784301
43390,LiSc2Ru,mp-865795,-0.364509479583333,87.89557904206833
54752,MnV3O8,mp-774945,-2.310525308160919,8.70443507223897
57175,Li2Mg,mp-976843,-0.032004843888888836,243.18533327277288
49564,MnTe,mp-404,-0.29316151896551723,46.43575245795844
25186,ScCdHg2,mp-867263,-0.26041737874999993,66.7707403053389
145185,K4CO6,mp-675766,-1.3334868465454548,20.59003086559791
97238,TlPd2Au,mp-865232,-0.17044051833333285,123.55695807699425
60973,BN,mp-344,-1.2419457895833332,179.4110999022539
1884,SrDy2O4,mp-556075,-3.7385765909523805,113.59764151294671
66678,Li(CuO2)2,mp-25385,-1.0921938147619048,109.542864602462
110037,NaScO2,mp-7914,-3.1955612153879303,104.0632946679921
30708,ZnCl2,mp-22909,-1.5568997900000001,6.59670982859333
127407,VBO4,mp-754594,-2.5151507398611117,20.304917190690958
20694,TiO2,mp-25433,-3.349036991111111,48.997083510243556
88458,Cu2HgI4,mp-23353,-0.4456140721428566,13.634474564839248
139957,GdSe,mp-510404,-2.083803276171876,90.26212423570709
68002,ZrS2,mp-1186,-1.84893887875,17.377802538049604
77461,CsPbI3,mp-540839,-1.2657417845862071,10.207792125778218
59616,YMn2O5,mp-510598,-2.639069565628592,153.8259978736079
143324,Ca4CN4,mp-5251,-1.010821020277778,66.69858950987052
61364,LiFeRh2,mp-862290,-0.12166908083333272,142.94474851812362
119767,MgCO3,mp-5348,-2.4489090569999994,105.29752934273122
80662,K2GeF6,mp-14168,-3.0375324373333337,23.110991238645823
9196,Sn2Ru,mp-510219,-0.14734312999999943,117.82808837986649
44445,CrPtO2,mp-755584,-1.6545585481250003,190.75235549420677
101735,Ca2Fe2O5,mp-673820,-2.2634031527777787,92.23579912007187
126020,ScPd,mp-2781,-0.9077707574999998,114.01813003571874
127704,LiMg2Ag,mp-864598,-0.21572000499999966,45.71491918022974
92735,CuI,mp-570081,-0.3419562424999998,8.930721285979377
37238,WO3,mp-566278,-2.1846306675000005,193.85033603735587
26360,Al21Pt8,mp-1982,-0.7566054001724134,132.90103126218722
84112,Y2Si2Rh,mp-31011,-0.9766602366666668,105.59075305443868
79590,LiFeF5,mp-755653,-2.4569445772619054,37.157806046207014
142526,VS2,mp-1013526,-1.1831222987499999,16.638804286494473
67846,RbCeSe2,mp-10777,-1.9212834917968742,30.545235739864196
46385,Zn(InSe2)2,mp-22607,-0.8633086013392851,22.805998158338866
145364,K2PdCl4,mp-22956,-1.7258791137142855,12.69569280535084
126562,Nb2InC,mp-19835,-0.4076858349999988,158.08174539409782
55434,AlSiRu2,mp-862778,-0.7136201324999991,236.13323502357008
31112,Sc2CuRu,mp-862338,-0.4714310412499998,118.0559271683224
8046,RbVF3,mp-556424,-3.0360117110000004,64.80412016507978
37545,TiVO4,mp-690490,-2.9580379530555567,224.75677650651815
85027,CaB6,mp-865,-0.4078072207142855,149.17995569738025
134130,MgFe2O5,mp-1393223,-1.6295176112500007,83.41562509598089
47892,CsCuO,mp-541037,-1.1894963259770115,19.92643688602522
51847,EuAlO3,mp-21455,-3.3235934565000003,175.20002288595668
38678,CaSn3,mp-11290,-0.40681982125000005,43.35358960588354
6633,CoAsS,mp-4627,-0.6162958260416668,138.95373453369703
129141,CaMnSi,mp-21096,-0.33901352597701145,44.61172218862485
47306,CdCO3,mp-4385,-1.7632280019999995,90.9085366021375
109267,Zn3(InS3)2,mp-637614,-0.8929412307954553,53.154189046062186
21480,MgZrN2,mp-1029536,-1.4844462125000009,149.36318598277825
85694,CrF5,mp-639662,-2.311780342916667,7.672305516911139
47017,LiFeO2,mp-18782,-1.924718024583333,127.46381889274076
97411,Mg3Pt,mp-18707,-0.5844619533333333,69.63773373624446
44664,Ca(Al2Cu)4,mp-10877,-0.2665357153846158,92.8605099316791
42582,TiCoSi,mp-15657,-0.7633952916666679,185.48487794571798
36514,BaZrO3,mp-3834,-3.6391672450000003,148.8673335545741
101509,K3BN2,mp-1029756,-0.5440325859444446,29.57307501816026
108579,CuAgO2,mp-996975,-0.7268962866666673,105.99401820833154
128252,AlPt,mp-10903,-0.9318046300000002,185.40221085602786
106801,HfSiRh,mp-13472,-1.0681136775000002,189.71124115919724
96990,Mn3Si,mp-20211,-0.28182627094827595,206.25381648687238
106275,FeS2,mp-226,-0.8405226712499996,145.94762540857403
5571,AlPO4,mp-7848,-3.120800598888889,25.78571248545979
17583,KCuF3,mp-5566,-2.3598687480999994,66.60403847884757
131243,Bi2SO2,mp-27891,-1.338841285625,44.34627919031817
26760,VOF,mp-754151,-2.7825778258333336,146.1871425230894
64000,Sn3As4,mp-570377,-0.03525055928571419,38.978072254033194
20201,FeGe,mp-21255,-0.09531777624999993,152.64043936409246
98777,TiS2,mp-1008682,-1.1639776565277782,60.183909211018424
114746,GaAgTe2,mp-4899,-0.5010239860416665,40.78455890846227
59488,Sc2O3,mp-754455,-3.882412223,140.61103113994258
67160,LiFe2F6,mp-557403,-2.7551215498148145,72.0901769136145
2755,F2,mp-760482,0.0034656799999999155,2.305929163647058
15856,SrZrO3,mp-3323,-3.607315214333333,152.9320681720585
126,LiMg2Hg,mp-864630,-0.2576582795833333,41.33630095474066
96043,FePO4,mp-753395,-2.3246038288888897,37.791272648187736
11501,Y2PdRu,mp-866166,-0.6231990995833332,102.11571389970138
145,Na3BN2,mp-28630,-0.6275795181369729,46.53259509318782
121650,K2PAu,mp-9687,-0.4859778810833335,21.119394216607702
22022,IN3,mp-684692,0.6631415318750005,7.15091369307752
60420,Mn2AlV,mp-10895,-0.31761138646551856,184.52148562181594
99890,W3O8,mp-19066,-2.1245023700000005,250.1608819989178
25134,Ni3B,mp-2058,-0.2628471747916663,224.70161210168686
60364,BiI3,mp-569157,-0.7657619162500002,2.9838513488812484
6171,Sm2O3,mp-218,-3.861952467249999,130.01468082864017
126839,Ti3Al,mp-1823,-0.27915687249999976,115.21792393507477
27191,Li2ZnAu,mp-865871,-0.39488716916666666,46.169236031291945
66057,GaPt3,mp-11407,-0.43107699937499966,216.6240531966596
85514,ZrCl3,mp-22871,-2.20369939625,5.947483104283267
56072,Tl3BO3,mp-4584,-1.6481950663095242,20.40652981651352
80339,AlB2,mp-944,-0.0429874394444442,184.74891814634742
78100,WSe2,mp-1821,-0.8722127332291668,19.915543304044057
59742,CuCl2,mp-30999,-0.91673365,7.404334597968838
37246,CaSi2,mp-862,-0.3213559583333332,60.0568178831051
141122,BaFe4O7,mp-504445,-1.8600428158333326,117.55031879948235
54162,AlBPbO4,mp-558137,-2.720201696845238,66.71672091946681
62937,NbZn3,mp-953,-0.16381860000000037,118.98449708202364
128345,ScCo3C,mp-10270,-0.2949182640000004,214.4788064468532
30645,HfVGe,mp-10312,-0.6075226783333333,154.76242965931613
78702,AlN,mp-1700,-1.5630532525000005,194.66721403087985
87594,LiScO2,mp-5840,-3.3446211433333337,118.96700272541918
136557,PrN,mp-343,-1.463882215,132.99865060960443
55212,ZnS,mp-560588,-1.0598413615625,68.78027255277351
45991,BPt3,mp-861943,-0.01885654479166643,177.45472466539331
80298,Mn2Au5,mp-30410,-0.08059534083743866,126.64411664937633
40914,ScGaO3,mp-754165,-3.101253307500001,178.91573056349534
123433,LiFe3O4,mp-773525,-1.6720563354166664,87.45931830069426
63499,LiCa2Al,mp-862632,-0.14325712833333304,28.684276641393872
136693,TeO2,mp-2125,-1.4947043037499999,23.275579593079527
57672,InI3,mp-567789,-0.7828857718750004,0.9358263168779338
92226,NbCuTe2,mp-31510,-0.5334711824999996,66.86417340794607
108063,Nb4SiNi,mp-22396,-0.3603442225000002,190.56518329339792
34824,V2CdO6,mp-540685,-2.165879801111112,84.98920356491602
96959,Ba4Bi3,mp-30892,-0.9117669350000003,23.816823765496935
50088,Li3As,mp-757,-0.71187711375,34.75555949162204
27257,CaMgSiO4,mp-6493,-3.3652382117857136,100.6957197175482
132348,CuGeRh2,mp-867917,-0.37115717125000014,199.26497119522043
5933,YSi3Ni,mp-10284,-0.6465678813333333,119.47926821495565
1454,K2PtBr4,mp-27243,-1.4419696251428569,10.76261564219972
37213,MgFe2O5,mp-756222,-1.738201240625001,121.60112138983965
75030,SnS,mp-10013,-0.4107973890625001,37.9081914130929
82322,Bi2Te2Se,mp-29666,-0.5653206584687502,13.805174876037174
106361,V2CrFe,mp-865490,-0.1609843325,231.8443200741503
3080,LiGaPd2,mp-867198,-0.7043716602083325,112.68322553983171
121845,CaMoN3,mp-989635,-0.793337692,105.17757809200393
30225,Na3(CuO2)2,mp-754483,-1.3400678721839077,29.378337839395464
46007,Mo2SeS3,mp-1027890,-1.1382496969531246,19.637068537834594
139208,LiPd3,mp-861936,-0.2705323108333326,122.43913736352494
139169,Ca6GaN5,mp-17875,-0.9477804247916678,71.34600608099998
48240,BaMnO3,mp-19156,-2.4821709980862074,80.06245057207329
105139,TiSnRh2,mp-865707,-0.6565809620833338,179.92806292295512
138402,ZrNi2Sb,mp-3469,-0.6055804400000007,145.04228224609466
70815,VO2,mp-755394,-2.385931455,232.76625571414996
139044,CaSbPt,mp-8487,-0.9771642100000003,82.09983938253299
76255,GaNi3,mp-815,-0.2902063768749992,179.94290375014472
130630,PdPbF4,mp-20805,-2.0903579516666664,64.74217233437214
64621,Cr3Si,mp-729,-0.32290442374999984,248.5819256527771
21982,In2Pt,mp-22682,-0.46688487666666667,94.85489450594628
38137,Zr3Zn,mp-972088,-0.12514174750000073,93.76982756355747
116865,CuAuSe4,mp-30151,-0.3932567798958336,28.881173322328642
116952,Sc3RuC4,mp-8996,-0.46839081749999956,180.18183186933655
113188,Nb3Pt,mp-2663,-0.38158030249999975,207.21659223552172
124423,Y(CoGe)2,mp-4908,-0.6159297573333327,129.3081330912261
106174,NaZnN,mp-1029357,-0.11018717385057523,66.6957871227934
9013,Zr3Cu,mp-580287,0.03293070499999917,98.66421279673938
75153,MnGaNi2,mp-20228,-0.28965139635775916,151.97721164099937
49398,CdSbAu,mp-16246,-0.18169250999999953,70.54013524686437
95128,Al2O3,mp-7048,-3.417169786,185.650958236243
104963,Sc2Al,mp-11220,-0.350947593333333,70.28572074533245
12915,Sr2Co2O5,mp-556076,-2.144673288703704,88.27881726642502
110047,CoTe,mp-788,-0.27563052999999993,110.36267817696071
1186,CrCo3,mp-1008280,0.06294242875000045,258.5448710355093
15696,MgAlSi,mp-4499,-0.015319250833333223,68.20486878285874
7735,LiAuI4,mp-29520,-0.6960097047222223,7.113122395439417
64053,HfP,mp-9953,-1.293614284166667,148.4763086935302
29674,SrNiSn2,mp-862750,-0.48172405541666663,56.44761420454569
108073,Ti,mp-6985,0.06196251666666619,107.11163770530203
47774,GaPd2,mp-1869,-0.6454105933333333,149.4953883943224
122840,YAu,mp-11261,-0.8646292083333327,86.38813910944552
117308,AgN3,mp-2247,0.35419183833333445,15.771739946761068
101789,LiFeF4,mp-776094,-2.7586975380555554,52.118594016127524
83371,MgB9N,mp-30091,-0.42295455522727177,209.11702116348144
95558,InCl,mp-571555,-1.1191390225000002,9.298670726256749
66240,MgP4,mp-384,-0.3061078936666668,57.766909610393384
96846,BN,mp-2653,-1.3666759095833338,373.24096933529734
117971,SrIn4Pt,mp-21124,-0.483847568611111,53.07261058784117
52983,NbN,mp-1580,-1.0426084225000007,304.66996840856063
52592,VS,mp-1868,-1.1459803203125007,147.44242733103772
119394,Cs2PdC2,mp-505824,0.04455018082758642,28.638546604634612
53368,Zr6CoAs2,mp-29135,-0.730147631666668,124.49581105808576
40660,MoO3,mp-20589,-1.8851788324999994,31.011067056525988
118472,CdAgPd2,mp-867260,-0.2583104991666665,116.19957921583608
45786,Sc2BC2,mp-10343,-0.5701258538333335,138.05020192146827
126490,LiVS2,mp-7543,-1.3391376048958339,65.69468062470702
71498,ZrGaNi2,mp-22580,-0.529860206875,152.06452385836502
55996,CO2,mp-556034,-1.7548756449999996,3.7929728284429856
12882,BaZn2,mp-30435,-0.19514573000000013,26.940005600321257
89629,ScZn3,mp-862260,-0.31313379249999995,77.22388839480216
136883,CsNbN2,mp-8978,-0.9150805682327592,95.73236062008553
107614,Ca5Bi3,mp-27145,-0.8384796115625002,32.22272088185615
128960,LiV3O4,mp-754378,-2.288864624166667,131.4983992058054
71577,CuSiO3,mp-16053,-2.249616821000001,27.365148540284718
95796,ErCl3,mp-863029,-2.6690462137499997,4.911473490662566
45792,Ca3Zn,mp-30485,-0.11940775749999988,22.131185271196976
16392,VGaCo2,mp-22790,-0.31484435687500056,197.8295389688575
96571,Hf2S,mp-10000,-1.1958842743750004,131.4023301801204
16336,CuAgO2,mp-7237,-0.7080242041666667,42.81876054249142
126144,PrB6,mp-12762,-0.4832376585714278,173.92242587895203
43939,Li2AlRh,mp-30820,-0.4907674291666666,80.32017717770643
74771,CN2,mp-1019086,0.3733575583333331,82.9745227360928
7193,LiMg2Rh,mp-864601,-0.3795861658333335,66.70699045111473
39790,C,mp-569567,0.14436101357142864,435.1054757417971
67530,NaBeSb,mp-9574,-0.23085552051724179,34.762776515790634
102211,GaS,mp-556742,-0.9029613953124995,16.80033163805013
21464,In2O3,mp-22598,-1.997063393,145.18146267217668
141991,CoS2,mp-2070,-0.6925998454166672,124.28165948982394
18504,YGa2Ni,mp-11444,-0.654518641666666,93.03979529971315
44358,Nb3AlC2,mp-996161,-0.5221489541666658,202.634280076829
93087,AgSbSe2,mp-33683,-0.4001328740885417,58.04121235545085
87748,N2,mp-568584,0.015948776250001018,1.6117008272019704
95351,K2CO3,mp-10662,-2.1103544468333326,30.262611560568345
87700,K2O2,mp-2672,-1.2954442415000003,31.76231706321988
98953,LaI3,mp-27979,-1.8309820600000002,6.499634192140035
60396,Ti2AlCr,mp-999096,-0.13304465666666676,104.52494863467234
95953,LiSn4Ru,mp-21297,-0.25628747888888864,68.21946657605889
69500,Sc2CoRu,mp-867761,-0.4775799224999995,131.9220189774215
81899,Sm2S3,mp-1403,-2.367298272375001,76.79566390897227
65363,ScAg4,mp-30354,-0.19898818633333307,92.30350859821505
124994,Be2Mo,mp-1677,-0.31991838583333393,198.7402983474112
79181,SiPt2,mp-1299,-0.7137078466666663,203.29602184672345
3316,PdF3,mp-14112,-1.5492320518749996,41.82959746072615
111551,KVO2,mp-754400,-2.1678546819999998,108.84900312125814
50536,VSiRu2,mp-865507,-0.5673163424999998,253.33933781994762
49463,Cs2PtF6,mp-9262,-2.4631886567624517,15.073013384583508
72803,NaVSe2,mp-3567,-1.092205102809805,46.58486348919209
110717,KNaS2O7,mp-555576,-2.0949783400728843,23.068316252122237
106453,Li2VF4,mp-760339,-3.032884812380953,59.17639583011797
116666,SnPt3,mp-20971,-0.3769972937499997,200.76621327441217
139503,La2Hf2O7,mp-12533,-4.042177046363636,164.8165474486595
98069,V5Si3,mp-570483,-0.5037959375000014,183.69482781925012
100242,Sr(MgAs)2,mp-863260,-0.9607238073333335,47.53398698310377
30891,Tb2Bi2O7,mp-769673,-2.5419772963636365,131.2909462234709
46868,FeOF,mp-752941,-2.084471650833334,38.75665574289571
104472,KAlF4,mp-2910,-3.6401830663333326,46.32619877673693
58041,CaMgHg2,mp-867144,-0.42009454749999997,39.82626000900407
31594,TiNiSn,mp-924130,-0.5294162127777776,122.18962344033785
30863,ZrSeO,mp-756134,-2.677899939114584,143.25602327929792
144065,LiMnPd2,mp-861629,-0.3650735028160925,112.38348785752854
49835,V3B2,mp-2091,-0.7226935446666658,255.93277598709903
104202,NiO2,mp-35925,-0.6874090666666669,81.51946990495047
49343,Hf5Sn3,mp-21104,-0.3801451050000004,113.4618970293904
107055,HfFeGe,mp-22191,-0.5437586961111123,197.49280252271532
91563,Mg(B6C)2,mp-568803,-0.16787738800000038,228.5489548424472
29109,Na6MoN4,mp-1029542,-0.35654627811912254,53.1665907432502
74963,MnCu2SnS4,mp-19722,-0.6560257231788791,65.58827145570743
76947,In2TeO6,mp-504908,-1.8227141611111117,141.61588404572436
64929,SrZrN2,mp-9382,-1.4635125516666667,150.00747546546745
108067,Ga2HgTe4,mp-16337,-0.5424630871428572,24.137750257199023
43036,BeAu,mp-30365,-0.1361928937500001,147.9291988511289
110801,LiCuS,mp-774736,-0.903836414652778,43.38279292030071
69637,Sr3(GeN)2,mp-29088,-0.7686201842857143,50.19365276417261
9528,Hf6NiSb2,mp-15297,-0.5367185944444451,126.26698011380927
6081,ZnF2,mp-1873,-2.6029855116666663,98.49302674473932
25409,CoSb2,mp-755,-0.30453677833333376,99.47480202806642
46145,ScVRu2,mp-867137,-0.4583206937500002,195.2361999847618
100540,Ga4Ni3,mp-30655,-0.3958929433928568,132.10215517642746
91216,ZrPd,mp-13495,-0.6519607825000007,134.03413733987153
18746,Al2HgSe4,mp-3038,-0.959560753482143,31.678802895669765
50233,Sc2AgRu,mp-862473,-0.44181223041666673,112.49907873679564
104240,NbNi3,mp-1451,-0.2926187387499999,210.78748571065262
16454,RbFe2Se3,mp-15120,-0.7422370907552077,15.745777111393394
6296,Li2FeP2O7,mp-540231,-2.551663722777778,59.44048709703403
36517,N2,mp-999498,1.4934280850000006,276.0534720102262
78043,Mg2SbN3,mp-1029378,-0.5574958883333329,114.24388239822484
48329,Yb2SiO5,mp-17702,-2.86209475,80.86346157249659
42510,Nb2C,mp-569989,-0.4666597966666674,227.68831494426644
135737,LaN,mp-567290,-1.5012699525000004,86.33357130850251
139919,CrRh3,mp-12585,-0.10852534249999923,229.77454539320757
104524,Ba3BiN,mp-567666,-0.849206393,24.9126327987899
127929,Sb,mp-7761,0.23852514000000014,65.46144402519698
17428,AgPtO2,mp-997006,-0.6751840079166662,122.99510051265156
130502,ScCu3,mp-973092,-0.16409807124999976,105.94642904188012
137015,B9C,mp-633538,0.314774848750001,195.3036636891412
47627,Pd3Pb,mp-20849,-0.2999281275000003,131.5057465388927
119904,MgRh5,mp-977273,-0.12261462166666585,197.5571403470575
96143,Y2ZnIn,mp-865671,-0.43355573583333396,61.22162887045144
109801,SrSbSe2F,mp-556194,-1.9882012597708332,44.182348093593376
63262,Mn11Pd21,mp-758104,-0.2253100514762929,142.2166969826003
132430,Mn2CrCo,mp-864955,-0.048539032715517294,153.80814865418068
34223,ZnP2,mp-11025,-0.24848223430555608,68.205058964626
38523,LiSi3,mp-975321,0.22342230791666662,50.522811631326434
63895,Ba(NiAs)2,mp-568280,-0.6551950740000002,63.6837617764038
46559,ZnFe3C,mp-10266,0.011766903999999556,213.07698420766698
105014,Al2O3,mp-754624,-3.361055482,189.77629925573945
105955,Na2NiO2,mp-752558,-1.2962557166206898,81.60833411554029
9907,YMgCu,mp-13171,-0.21441913555555597,59.58493200930519
9472,Ag3P11,mp-27821,-0.025214556904761105,52.845815488986766
131391,GePtSe,mp-20817,-0.7084977774479171,120.58146859339715
49889,Ba2LiN,mp-605860,-0.3646058561458334,15.702664019605706
37882,Ga,mp-10021,0.017210637500000292,49.130670039158815
134351,Sr(ZnAs)2,mp-7770,-0.6687139033333335,54.15560384336494
128300,TiAu,mp-11259,-0.319754641666667,137.28119281790174
109258,ZnSnSb2,mp-4756,-0.15932927249999995,40.40913013646486
90210,Li3MnF6,mp-757600,-2.938748827293103,25.470448896265786
121501,NbZn2N3,mp-1029422,-0.5799973616666669,138.98508644618983
95833,VPt,mp-2678,-0.5504538850000005,242.9735323624506
112791,AlBiO3,mp-551918,-2.5005107850000003,128.12140961809013
122202,ScNiSb,mp-3432,-0.963593911666667,103.62492754241902
5543,TiAl2O5,mp-4930,-3.4414870010416685,183.3671883974945
51018,Sc2O3,mp-216,-3.9687326407500008,167.5755719170084
71996,Mg3Fe2O5,mp-753595,-2.4190432055000004,153.72324431742317
102383,Li5(NiN)3,mp-7080,-0.469517452878787,78.76283373591087
42518,Ti5Te4,mp-7498,-0.8752131640740741,66.25088231133373
134813,LiFeO2,mp-757614,-1.944939937708333,124.98166078405751
116922,BeSO4,mp-5046,-2.3026629346875,35.903563937400406
113111,MnCu2GeS4,mp-20474,-0.6509170988038795,69.99569819690615
19238,CsScO2,mp-754826,-2.9798165382327584,63.36709513848437