,formula_pretty,material_id,formation_energy_per_atom,k_vrh
79419,ZrBe2,mp-1252,-0.16392619333333394,119.49582186795504
17115,Li2PdPb,mp-861651,-0.3791258541666669,50.35024502974684
29756,VB2,mp-1491,-0.7388403661111115,285.5389712527296
73119,Ti3Ga,mp-672250,0.20976014562500023,91.11041671355804
142951,BaS3,mp-239,-1.4350043035937503,33.16957118769459
37688,RbCaF3,mp-3654,-3.718474268999999,45.8646336871634
59652,PbBr2,mp-862868,-1.2824953266666663,23.39098577772452
101967,AlFeCo2,mp-10884,-0.37134927750000024,187.92685090421605
99137,ZnCN2,mp-29826,-0.2525500274999999,72.54610228159416
1515,CuRhO2,mp-14116,-0.9612006150000001,163.96061587784993
40222,Sc(MnAl2)4,mp-31081,-0.33480456744031856,103.20664441787605
105155,PdF2,mp-20284,-1.3610413116666666,79.32672042291728
52732,ZnCr3,mp-971752,0.23313614000000094,108.1969878830347
107085,Ca(PPd)2,mp-6926,-0.8482566693333325,112.31028055027816
112521,CaZnGe,mp-16263,-0.5302843133333335,49.30119921349885
113993,Li6PS5I,mp-950995,-1.2914213614583332,26.627609451889708
19764,RbAgCl3,mp-998201,-1.4208789488333333,31.882788865376668
28528,KNbO3,mp-7375,-2.8563218356,102.64786166824436
38743,Sc2S3,mp-684969,-2.210600633874999,56.28664766544171
136578,Ge2Sb2Te5,mp-3534,-0.32450177888888887,22.658176484379652
65987,Hf3Rh5,mp-17045,-0.9153235287499992,194.0009941991298
142849,SrFeO3,mp-510624,-2.223572376333334,131.3827469419987
55312,Na(CoO2)2,mp-22474,-1.4520973398645327,69.58244619896811
94122,LiCoS2,mp-757100,-0.962080496145834,71.13566153262028
97375,Mg2Si,mp-1367,-0.128726743333333,52.855579079281654
58715,MnCuO2,mp-510589,-1.5397280607327595,112.04741880151155
112351,La2CuO4,mp-19735,-2.970636039999999,144.32623060220772
63256,ZrAlPd2,mp-541047,-0.8031145974999996,147.49286869274192
130488,FeCo,mp-2090,-0.06792996750000047,189.17969792095255
123811,Fe,mp-13,0.0,182.4592408084652
107579,ScSn2,mp-2398,-0.46841859416666703,64.04253562038687
26842,HfRu,mp-2802,-0.8243854824999985,196.5934816474857
9749,TiBe,mp-11279,-0.14029816916666693,125.89657679775854
138230,B2Ru,mp-1077,-0.28590921944444386,285.54069537853246
117108,CuSe2,mp-2000,-0.39791102822916596,64.3552456430903
19018,AgAuO2,mp-996983,-0.4721402929166656,65.3276467958114
126603,CaPPt,mp-28339,-1.1363215577777777,95.39426984793587
97623,Li3(FeO3)2,mp-752654,-1.6665223263636373,80.30408591798727
32833,Y4CuTe8,mp-675009,-1.3536611466666666,48.69366773052792
38410,Fe2O3,mp-542896,-1.5912518724999998,163.47092556051408
86694,PrSb,mp-1644,-1.0341824275000002,59.155614870600395
120134,NbCoP,mp-21449,-0.8828173861111116,238.2407181053369
71949,TiCuGe,mp-753490,-0.3410767327777779,132.38424906644752
51854,YRh3C,mp-22120,-0.48520638133333305,196.6452277015113
23164,SrGaCu2,mp-30580,-0.25798779104166636,53.001458417525626
54321,Hg4Pt,mp-936,-0.09421034600000003,59.048007735356606
30357,Bi2Se3,mp-23164,-0.6415154649062493,17.437569662770443
100183,BiTePd,mp-29011,-0.3409506399999997,73.64016589242534
126068,LiY2Pt,mp-867121,-0.661153674166667,71.69357878193608
108212,ZrAlNi,mp-5723,-0.6447182466666672,138.3532045026832
1955,NbRu,mp-432,-0.17831256250000038,237.16643993626036
80513,ScGa2,mp-11412,-0.5667044983333334,80.10048373037083
112876,CsF,mp-1784,-2.842582285215517,21.191659198411564
113077,Sr3B3N5,mp-1029490,-1.1872793547727283,69.09054646180476
98060,ScOF,mp-4661,-4.1265556891666675,141.21520715803152
113881,Ti3NiS6,mp-13993,-1.494519708875,71.54015194836364
84399,MnSbRh2,mp-571163,-0.291264754482758,162.556103445911
66741,Ti(WO4)2,mp-1041486,-2.4337712171212114,82.87927897192489
10267,CdPd3,mp-865985,-0.26858443249999997,137.02324675694263
142348,Nb5Si3,mp-567871,-0.5526578418749999,185.36044020460508
44340,Li2SiO3,mp-5012,-2.882895587777778,75.69164896832186
132894,Li2CdSb,mp-16271,-0.4553721516666669,38.16221054384356
35588,Au,mp-1008634,0.00530064000000019,135.111162101533
103456,VSb2,mp-2851,-0.191192383333334,98.37537606350378
36365,Li2HgPd,mp-865731,-0.42192876291666614,51.65321722153395
107622,KClO3,mp-556084,-1.1529485901,16.115050977743838
63724,GeC,mp-1002165,1.2708488875000006,166.7870976824371
20072,ZrMnSi,mp-22227,-0.6708131584770101,146.2922935783026
12379,SrAlGe,mp-13311,-0.4703856705555551,46.58620580662601
104434,Sn4Pd,mp-2128,-0.2368442420000001,56.4343491777104
3424,GdScO3,mp-5690,-3.9203276445,161.70030684128636
119650,WOF4,mp-753704,-2.627249319166666,4.854286604514323
60703,TiSiRu,mp-505822,-0.7946222202777768,191.496371481759
91537,LiVF4,mp-753568,-3.131478528888889,28.300241237886198
31972,ZnSO4,mp-5126,-1.8632509417708338,68.17318454634398
112593,Pr2O3,mp-2063,-3.7095598549999993,121.277247407121
143493,ScNi5,mp-570673,-0.28338362749999985,158.69653468668463
52685,HoI3,mp-864657,-1.6451244487500003,3.016759952725977
75864,MgGaRh2,mp-865125,-0.6906839443750004,153.61400524238775
105590,SnS,mp-554134,-0.6410236615625005,2.6556765924771972
26728,SiNi2,mp-507,-0.4785599316666662,202.77220850859337
52520,Co3TeO8,mp-753013,-1.213383010416667,37.141649317497645
127471,TmBr3,mp-865301,-2.2315526422916667,4.002880337313286
94196,Rb2NiO2,mp-19167,-1.2654713379999998,24.990312167326977
41500,HfCo3B2,mp-7804,-0.5805377655555546,254.56408313009433
94957,Ca(FeP)2,mp-5597,-0.8438887993333324,88.75798507072957
13513,Rb2PdI6,mp-628606,-1.0051119461111115,8.690525175890352
11285,ZrTe,mp-1539,-1.1086238900000005,93.06590970990709
46875,SnSe,mp-691,-0.6685497174218749,24.388515025738368
85552,K2MgCl4,mp-27207,-2.262693628,21.61672509698047
22757,Ti3Nb,mp-980945,0.08445038499999846,123.1981645833244
83571,Au2O3,mp-27253,-0.45785357900000034,81.32783280656528
81121,SrPbO3,mp-20489,-2.1561375228333333,104.9957940466646
13091,Cu10Sn3,mp-568495,0.011188738461538715,110.09595977350102
74707,SrNiSn3,mp-30805,-0.4356997063333338,56.39793855862348
96995,SrPdF4,mp-12622,-2.8664100111111104,63.87046107764724
42604,Li6PS5Cl,mp-985592,-1.3211311668429482,27.967179718290645
111639,Pb,mp-20745,0.014271320000000198,40.38488783390058
129177,AlAg2,mp-985805,-0.07547678944444414,93.73928708663959
115208,P2Pd,mp-28266,-0.429536005555556,108.67576516838645
87969,ScAgO3,mp-776150,-2.1130571833333334,131.76484003763073
37124,Li2HfO3,mp-755352,-3.1678989494444445,106.16940985528974
52197,Cu3Sn,mp-581786,0.006536767500000096,107.74335490568748
15714,CuO,mp-14549,-0.7716011574999992,177.74276527884084
141523,Hf,mp-103,0.0,107.97253194438251
22983,YScBe,mp-631471,0.884160657777778,37.62894480736055
122704,ZrO2,mp-2858,-3.8136169366666657,183.05128755682853
3033,InPt3,mp-20516,-0.35435140500000006,204.5878253804828
38900,Rb2LiTlCl6,mp-989579,-1.8004348011666669,20.063050530051996
52363,Nb5Sb4,mp-274,-0.39255821444444433,97.6604039570619
100843,CrCuO2,mp-505562,-1.7844564099999998,153.9349623793923
141534,Li,mp-51,0.0028927066666666335,13.860513000436555
86417,CoSb,mp-2644,-0.25756015250000086,136.6993563523498
3721,Sr2ZnCu2(SO)2,mp-9453,-1.708143468842593,78.60762904958992
53311,CeMg3,mp-1798,-0.028207698749999732,38.034345056356486
109066,CeNi5,mp-1910,-0.344781860833334,150.64557442896955
99363,LaMnO3,mp-17554,-3.0097313055862074,106.86356367306394
25604,Rb2PdF6,mp-14088,-2.402987928888889,16.5080709449371
95983,Ca3In,mp-20581,-0.21932690749999972,24.996758379209197
53989,KI,mp-22898,-1.6804620439999998,9.520625129561472
67369,ZnP4,mp-14587,-0.08566377966666679,61.37130873240541
122847,InAgS2,mp-19833,-0.6777584844791664,52.19929643216189
7441,LiSn4Au3,mp-31301,-0.2823390585416665,62.20061659625543
22342,V3Se4,mp-22700,-0.9972716984821426,80.00974868542002
66837,ZnO,mp-997630,-1.6176554591666672,167.33759431022486
93830,Mg5Pd2,mp-2406,-0.47214260535714303,61.90808155187929
112417,LiCu3,mp-862658,-0.03467872333333366,90.48338768325786
66385,SrN,mp-29973,-0.7041277483333328,39.29910498559068
87997,Sc2InC,mp-20175,-0.5456913724999994,81.45763334103093
83621,Na2S,mp-648,-1.231386725409483,28.062790485795258
74392,LiCo2Si,mp-867293,-0.40248677083333284,169.47867032370175
133027,I,mp-23153,0.0,4.846751739798408
68589,LiInPd2,mp-867926,-0.5938525258333334,95.32809887543306
108018,NbInRu2,mp-864788,-0.2517391024999993,208.00705265029382
87261,Tb2O3,mp-1056,-3.983580082750001,140.006208019624
144183,Ti2FeO5,mp-28231,-3.0208007777083328,166.66425597502408
22593,CsO2,mp-1441,-0.9798474259770114,17.674803120572918
55092,NbSiAs,mp-21907,-0.5689292299999996,153.03752998581163
114961,BaZnBi2,mp-30427,-0.4705333187499998,31.800751220706786
125781,Li2InPd,mp-21029,-0.4951247866666666,59.496943347307635
136902,SmF3,mp-7384,-4.446270806875,111.85855202896488
39291,CaSiO3,mp-5733,-3.4480347406666683,92.21365767047047
137937,NbPbS2,mp-19746,-1.1301450515625007,69.46906763156571
128134,Ca(ZnN)2,mp-1029258,-0.5229833920000004,120.2801978188208
92685,MgSeO4,mp-12630,-1.8722565537239575,59.164852796697176
109290,ScAlRh2,mp-867922,-1.089973603749999,163.36641394186665
102795,AlAu2,mp-569558,-0.31663628500000013,118.3886732527912
133445,ZnO,mp-1986,-1.7837747524999998,126.98247524225198
23479,Ca5Au4,mp-571264,-0.7639881994444444,41.59013181724541
42380,Cs2ZrF6,mp-7903,-3.675029908984674,20.86228372914453
119244,TiBr2,mp-27785,-1.393769429444444,4.0843255967214915
82175,Na6ZnS4,mp-8389,-1.2238336124373042,31.593171415151005
139728,Si2Mo,mp-2592,-0.4983013199999995,206.59450436090611
23336,Al6C3N2,mp-5798,-0.5362881772727274,164.69112514009078
92144,Na2PdC2,mp-4823,0.03196383737931115,45.794400711582234
84781,NaCoO2,mp-867515,-1.557119314137931,109.6702418723437
141166,CuSe2Cl,mp-31038,-0.6757141267968745,8.412043981107582
89688,Li3Hg,mp-1646,-0.27992955625000016,25.849681838170298
138865,SbF3,mp-1880,-2.6876072443749996,14.747837724663452
91415,K2SnBr6,mp-568333,-1.5347242840000002,7.584356276998731
34359,MgCu2,mp-1038,-0.1414163283333334,94.14784068165767
132609,LaMnO3,mp-19025,-2.928862199586207,166.2610051689491
90947,FeP4,mp-570553,-0.3717812881666667,140.58844749283503
87485,Cr2FeSe4,mp-5749,-0.6643629499107137,48.590288857357734
114752,LaF3,mp-334,-4.491318533958334,100.72035196164894
34156,SiRu,mp-381,-0.6038746474999996,248.09245737306944
32756,CaC2,mp-917,0.013185033333334909,55.97385940709108
6692,Mg3As2,mp-1990,-0.6261261789999999,49.834882908661505
63718,Br3N,mp-36891,1.4769301981250003,31.119758974225277
106878,In3Pd2,mp-510437,-0.46272546600000053,88.71750012850703
62611,NbCrSi,mp-9916,-0.47549955333333416,212.44653628648976
91331,NiSb2,mp-19895,-0.32531335666666666,87.51054094904259
92767,Cu2GeTe3,mp-12806,-0.30828199916666676,49.11982593399032
22316,Co3BiO8,mp-756635,-1.09108908625,1.1666183852967629
102612,CaSnPd,mp-30437,-0.8061516041666668,66.78470249102642
83995,Li2(NiO2)3,mp-758095,-1.295270281060606,94.52160695616924
56112,Cs2TeI6,mp-540957,-1.073189737318008,7.804570347008255
50492,VClO,mp-23061,-2.1947749841666675,22.19715641255838
105305,Rb2CN2,mp-1029784,-0.5739929169999997,25.747938352365363
6219,Hf2SnC,mp-4893,-0.7710108299999998,137.7770761203202
37002,LiMgAs,mp-12558,-0.7444915061111109,46.60532556989935
40870,KNbO3,mp-935811,-2.8434080836,170.62781437367244
142562,MnSiRu2,mp-864966,-0.46946011698275747,245.3509957668071
130658,CaCd,mp-1073,-0.35410172500000003,30.51528554958552
22090,ZrSiO4,mp-11736,-3.4791542341666664,221.9835756958044
86552,Zr3O,mp-1017,-1.5410876687499995,133.96788635842864
107558,Ti3In,mp-866046,-0.12693709749999993,108.4025975205122
6765,Na2ZrN2,mp-1029316,-0.8012956166206898,36.0888559197147
16366,K2HfF6,mp-8414,-3.6976345201111105,14.406657534370847
121148,AlFe3,mp-2018,-0.1970715200000006,175.12246985860435
44483,Li5SiP3,mp-685991,-0.591063026296296,35.325747269948316
115192,MgMnO3,mp-770618,-2.371780384586208,156.3292857329759
101577,YCrO3,mp-18725,-3.1995367278333333,183.66401827337197
27020,MnS,mp-2562,-0.7207167980280174,60.40354850397134
134761,LaBr,mp-27679,-1.5343300187500009,7.84575168414079
118958,SrAgO3,mp-979294,-1.3888205296666662,112.04603084050277
140791,MnO2,mp-1271850,-1.790686233477011,38.07330653588959
108983,TiNi2Sn,mp-3740,-0.43228060208333385,155.79494472538647
62712,LiTiO2,mp-755000,-2.924878704166667,128.70383562617224
60384,Sb3Rh,mp-2395,-0.54004195,88.91388608440764
122875,HfGaNi2,mp-3498,-0.5571363893750005,164.58238444379379
41425,TiAl3,mp-542915,-0.397540380833334,107.48491068005231
56433,Y6CoBi2,mp-30921,-0.47934908611111143,56.89353440124698
69074,VPd3,mp-568711,-0.23455793500000066,179.85302974168258
127639,Al5Co2,mp-196,-0.46090708178571405,125.42675367200769
53701,TePb,mp-20943,-0.3888417099999999,40.43605216681216
79846,HfAl,mp-249,-0.39552771750000026,117.12694958895693
16853,Ni3Mo,mp-11506,-0.09303739749999984,230.0111747544097
44623,NbFeO4,mp-755390,-2.4580197666666663,162.0796770566189
137915,BiTeI,mp-22965,-0.6370966283333335,6.958639009545307
15104,Al2O3,mp-754531,-3.3500965900000006,106.64661495235177
70568,NbCr2,mp-548,-0.02946737999999982,227.60198458661864
137733,NiS,mp-594,-0.5205426640625008,136.09835466575916
73142,TiIN,mp-27848,-1.3975229477777777,23.851531016986264
52700,NaCd2Pt,mp-865076,-0.254224136637931,67.27905614618746
140242,ZrSi2,mp-1515,-0.6004638316666681,124.68049535927958
59005,MoO2,mp-635966,-1.7920301116666681,89.1826785075565
945,DyScO3,mp-31120,-3.9633734385000006,164.60810168538168
44220,YVO4,mp-19133,-3.1912242111111113,123.58508282788694
38174,Tl2PdCl4,mp-29889,-1.180429483809524,13.902912481101502
90654,LiNiO2,mp-850062,-1.488876087833333,114.36538869186552
6569,Ca2MgTl,mp-861645,-0.2886446783333332,25.798679959305787
67118,TiMn2V,mp-865678,-0.2769295622988519,191.580852367403
56911,K2NiF6,mp-605034,-2.3907224634444444,15.994134327199959
20243,TiZnPt2,mp-861619,-0.7427261033333332,180.17129323962274
65051,Mn2AlW,mp-864990,-0.21519561146551602,235.85241509009916
118768,RbN3,mp-743,-0.41229142437499977,17.15443343177359
76133,TiF4,mp-1383199,-3.613191887666667,8.43487264638681
146292,ScSiRh,mp-20492,-1.0881264658333325,147.88002435183176
101141,YCdAu2,mp-865522,-0.6722614866666667,87.68621102103305
95027,Si3As4,mp-570744,-0.012708574285714544,59.04197593689775
28766,Rb2CO3,mp-4138,-2.085088149166667,23.873252955492326
26585,YSb,mp-215,-1.2551367833333336,61.66647790915637
91153,YCo3B2,mp-5019,-0.4843933500000001,203.842383325034
45773,V2N,mp-33090,-1.0904292561111109,267.3453734787041
13774,Al3Pt2,mp-10905,-0.9943251060000001,153.48753019324727
21645,SrCuF4,mp-12265,-3.0527409744444447,66.2261689879152
60819,NiWO4,mp-21179,-1.9000941049999998,151.88079220495666
72195,NaHg,mp-255,-0.247130859525862,16.93315619808617
11995,TiZnO3,mp-14142,-2.7925575876666664,170.68524121760805
51597,SnP3,mp-7541,-0.0053630550000001165,42.626775847388245
30757,CaI2,mp-30031,-1.89441126,3.784276077585983
86733,TiMn2Al,mp-865531,-0.3356196697988514,156.5063539793515
59540,NaZnSb,mp-4247,-0.3675699505172414,29.598742411214303
201,K2Se,mp-8426,-1.2539188127812497,16.249592799015517
53906,Mn(CO3)2,mp-754012,-1.7135564831034489,22.2354346939373
123026,MgAu3,mp-864935,-0.3999996874999998,112.25361611560425
106631,Cs2PtC2,mp-505825,-0.05903332517241324,33.28134504938217
105064,RbSe,mp-9063,-1.1642293207552081,13.100255549457046
128390,Li13In3,mp-510430,-0.20605672395833352,23.275147803377106
33994,TlNO3,mp-5915,-0.9896292216666666,20.783526097827686
27915,Tl2Pt2O7,mp-13801,-1.150827483787878,168.42814327650052
56726,MgO2,mp-2589,-2.0207075074999996,129.096882700749
61670,Y(Al2Cr)4,mp-30177,-0.21461756205128232,119.55758393546174
42216,ZrCo,mp-2283,-0.29168478250000085,130.636681572372
118588,C,mp-169,0.001337235000001158,117.46550134229493
63286,YPd3,mp-559,-0.8618491791666667,126.2604056199215
18801,Mg2RhAu,mp-864965,-0.5519820700000002,98.01106932743014
52794,NbS2,mp-1802,-1.3099816254166659,22.816200874315527
24173,CrSbSe3,mp-15236,-0.6863518204062494,31.675077635579807
98827,YSiNi,mp-20557,-0.7928136463888885,112.1681286936832
72600,Ba(CdAs)2,mp-8281,-0.6340791239999998,44.401563546000745
90500,Pd3(PbS)2,mp-21863,-0.5583959866071433,57.08461774308136
46275,HfSbRu,mp-31456,-0.5397618083333336,146.9728833527148
29751,VOF,mp-753622,-2.810423445833333,131.94730126382063
41468,SnPd2,mp-1851,-0.5406741200000003,133.3935251055807
103511,RbFeSe2,mp-7086,-0.8967329755468745,16.003658410157882
10958,Be2V,mp-11281,-0.21818012416666713,160.05688749702003
20909,ScMn2,mp-2039,-0.14286598945402318,166.49010222037714
99920,LiVF4,mp-753675,-3.2127990172222227,58.624866043166136
130521,CdHg2,mp-30488,0.03146343333333331,28.212087104492063
63295,CrBr3,mp-27734,-1.2173876031250002,8.457031157599971
69888,Cs(CoS)2,mp-557018,-0.8072166908362078,47.557959499621795
116232,Cu2SnSe3,mp-11658,-0.5152686320052086,55.0570220829367
18923,ZnCu2GeSe4,mp-10824,-0.5947719280468746,58.960818138313215
61725,ZnAs2,mp-7262,-0.15632683458333338,51.20820109612544
143670,Y2AlZn,mp-865560,-0.40652340833333245,62.50807557550563
40602,Si,mp-34,0.3052967200000003,108.76485931270793
49421,CsMgI3,mp-29751,-1.497126484586207,8.37965142934651
52576,K2PtSe2,mp-8621,-1.0951139981374993,28.44758089075951
64444,Zr2Cu,mp-193,-0.13238422666666713,109.02188295986373
56625,TiAg,mp-1961,0.09701623999999942,100.50761662677442
142892,TiO2,mp-554278,-3.5016293386111115,180.8271995630326
125675,W,mp-11334,0.08726064624999985,299.00519349302886
21013,Li2FeO2,mp-755094,-1.877978310333333,84.38240503404145
87544,FeBO3,mp-19097,-2.2703606938333336,173.74222733515808
25608,LiVF4,mp-753373,-3.1380182338888893,46.73103105063527
105716,Fe11Co5,mp-601848,-0.05703543718750126,191.5332380425069
100808,BCl3,mp-23184,-1.4336250847916658,1.081179087053625
13016,Ba4Y2Cu6O13,mp-20897,-2.2063284011333337,94.37760538516369
93963,MgPt3,mp-30777,-0.5779940374999999,182.23812084592885
57019,YZnAsO,mp-546011,-1.980399881666667,74.64865871728139
117506,Ca3VN3,mp-9029,-1.215528256428571,87.334154788657
107112,NaNi2O3,mp-759286,-1.2741676969252875,122.85024547979445
60724,CrSi2,mp-1222,-0.3119574255555556,195.53604122194633
137203,Li2HfO3,mp-770997,-3.1592986952777777,125.16443087371687
53203,Cu2O,mp-361,-0.644491993333333,111.56776739083098
40078,Pb(SN)2,mp-614185,0.12574273775000008,6.7665495712531225
15017,NaRuN,mp-1029313,-0.07919922051724153,93.14066742420795
14071,BaLiP,mp-13277,-0.9101322522222226,39.333097452053764
46041,ScAuO2,mp-11023,-2.5636976687499997,134.09223642977494
30751,CoF2,mp-555908,-2.3516267083333333,99.51695075494248
8582,HfInCu2,mp-600125,-0.16315917000000013,122.72782641766523
14418,Al2Cu,mp-985806,-0.17806622999999946,99.63617578431726
112921,KCrO2,mp-546552,-2.1236473457500002,111.26888560197781
15657,Ca(CoAs)2,mp-569298,-0.6110424759999994,83.22807231522611
10451,BF3,mp-558149,-3.112330842604166,5.39134887505401
44321,MgWO4,mp-18875,-2.5673527400000005,135.99220427793415
73710,Mn,mp-542909,0.05294699006896479,263.87730617432567
2265,CaN6,mp-676,-0.4628188142857143,45.067358588997074
82496,Ba2YNbO6,mp-7251,-3.4489505236666673,134.00500225262925
89270,Nb2AsC,mp-9989,-0.6193321775000005,205.65203767801333
88025,AlSb,mp-1018100,-0.24720398249999986,49.15173822013607
139423,ScInCu2,mp-21067,-0.31273070625,94.55179186754873
48071,Li2MgBr4,mp-29009,-1.833252202380952,20.67743348870066
35750,YTe,mp-1708,-1.5186599833333334,60.10865172851783
82123,Na2CoP2O7,mp-1011860,-2.4692110095641766,42.05286767507832
128127,Li2RuO3,mp-4630,-1.8589013894444442,107.60408946041761
101028,Li4CuF7,mp-759877,-2.6642145750694444,53.02838766564173
115180,MoO2,mp-510536,-2.0215011791666675,218.70097899852112
146248,CdCu2GeSe4,mp-10967,-0.5754954092968747,56.85363817606434
35268,Li2CuP,mp-12029,-0.5642857712499998,60.45663241639153
22973,Mn3Fe,mp-999545,0.11893396155172375,783.7871114496875
128656,FeP4,mp-27164,-0.37106213833333374,137.70638885187276
12965,MgCo,mp-542488,0.0033311833333330063,77.25611044916218
4176,Ba3WO6,mp-22086,-2.797659203,95.2281280749323
57616,Ni,mp-1014111,0.6202391299999999,17.58273839637945
109412,FeBr2,mp-22880,-0.7966693283333335,10.144002305931192
94141,Be,mp-20,0.09567004499999987,123.8764588509444
68614,Li2CO3,mp-556777,-2.181552359444444,75.69873542940672
124816,Li3Ga,mp-976023,-0.21426764687500022,26.14920032417878
78196,YGa2,mp-1914,-0.663766843888889,73.35054528493717