,formula_pretty,material_id,formation_energy_per_atom,k_vrh
14654,Fe3RhN,mp-580234,-0.14647030499999972,199.9055793813332
141853,EuCl3,mp-569895,-2.3070037412499995,22.107212925165662
52382,NaNiF3,mp-561480,-2.598550527310345,73.77149255357384
117705,Li9Al4,mp-568404,-0.14483139076923107,31.274175316818862
52948,YCo,mp-8053,-0.19367266083333412,69.90724270996871
16226,YMgCd2,mp-865512,-0.3187647541666667,52.265183752502715
145402,LiCu2P,mp-22716,-0.2799385841666666,79.30905362249837
52979,Sc3In,mp-570428,-0.28715358874999986,61.8487930064117
78310,NaSi2Pd3,mp-4276,-0.6211115135919538,105.81118391824454
138098,Li2TiO3,mp-36864,-2.9711622575,123.12550495417587
124822,Mg2Ni,mp-2137,-0.1731603077777777,65.42809187351358
136646,CsTiCl3,mp-28283,-2.057188415252873,15.833900923432408
96949,Mo(WSe3)2,mp-1025575,-0.9096646571180556,15.704286477003796
133719,HfZrO4,mp-754478,-3.877154611666666,204.5846807917232
79048,In2Ni3S2,mp-20708,-0.550785272321428,72.40304357996723
132033,BaCoO3,mp-18965,-2.0528786190000003,86.05420592175987
82406,TiSb,mp-2187,-0.5554318091666666,89.26815864865878
68483,NbNi3,mp-11513,-0.2842094924999996,209.461486656303
130322,Be3P2,mp-567841,-0.2322300610833338,91.18369482136853
18883,Y2Si4CN6,mp-6353,-1.3680589106410241,167.15818761501237
59239,YIn2Ni,mp-22056,-0.43950267541666665,78.61190570202292
127557,WO3,mp-559122,-2.184234823125001,193.28042393311938
105102,K(NiSe)2,mp-568747,-0.7048922875374999,40.24178115138052
108604,Zr2InC,mp-20004,-0.6926456875000007,118.5354542671274
106690,Mn2ZnO4,mp-18751,-1.9823252001231526,137.33961813730136
105238,Al2O3,mp-685036,-3.3157597132500007,145.9384938329946
119204,Fe2OF3,mp-758397,-2.322679938750001,116.86856894025762
141625,CeAlO3,mp-5323,-3.6023731940000006,190.88481656764333
16818,LiZnPd2,mp-867258,-0.587634210833333,108.20420422737655
133271,LiAl3,mp-10890,-0.10163692583333361,64.08862023532521
104049,TiSnPt,mp-30847,-0.8256581361111112,136.52104495651975
74292,Be5Au,mp-1220,-0.08535223250000001,137.57807067270278
40577,Ba3(AlSi)2,mp-9578,-0.3360362100000001,35.17060471032899
46670,GaNiRh2,mp-866037,-0.34138403937499984,199.86873451355217
120738,NbFe2,mp-568901,-0.11944689583333339,195.59739388090247
65462,YCd,mp-915,-0.35574040333333334,56.89268422786522
84650,SnS2,mp-1170,-0.7100808770833336,14.611322983770744
69518,Be2B,mp-1432,0.041492540277777934,149.66640770552607
50290,AlBr3,mp-23288,-1.51806051875,1.2194077786567397
118041,SrLiP,mp-10614,-0.903127787777778,42.89241879391889
43095,Si,mp-676011,0.44703131250000006,66.31253731262365
12063,ZnSnF6,mp-13903,-2.75044716625,23.482984282862944
38988,K2HfF6,mp-8415,-3.6730463301111107,51.952944650557214
52102,NbO2,mp-2533,-2.8700730066666664,235.12183941995346
79205,V(MoS2)2,mp-555370,-1.039886178928572,94.71245933104939
106384,YInAu2,mp-22493,-0.7047741541666666,89.44365067061787
54013,Cu3P,mp-7540,0.017908549166667065,124.55726991420286
18929,V2Zn2O7,mp-18807,-2.138217363181818,110.57672591567211
12874,V2O3F,mp-755587,-2.670329599583333,108.48740373306347
12881,Ti2SbP,mp-5244,-0.9550446912500004,114.25237334135478
99325,BaNiS2,mp-7486,-1.4381136865625006,59.879674612964884
67310,LiNiP,mp-754516,-0.6006594688888889,65.35267917092548
112975,SiC,mp-570791,-0.20442537842105193,213.55812569260644
116703,Li2PdO3,mp-760483,-1.6314154052777774,105.34123804148119
116613,Ca(NiAs)2,mp-4744,-0.6658266519999998,83.29367687226633
56073,NiAgO2,mp-19069,-0.8017232366666658,126.53579656984859
51574,CoS2,mp-1387852,-0.5740844837500004,71.11211525763053
114431,Sb7Mo3,mp-1521,-0.14801329300000035,107.81800225482812
18899,VSbRu,mp-31455,-0.23436214166666738,164.45755173146085
132955,Li2GePbS4,mp-19896,-1.0623508217708335,42.106356426722144
98924,VCu3S4,mp-3762,-0.8566046878124993,39.061984602075626
35159,KIn9Ni2,mp-569886,-0.1046474294166669,40.462659528656445
43779,Al,mp-134,0.0,83.27702046970407
15999,V3Ga,mp-22568,-0.17410187562499946,168.27451881496802
138893,Cr3C2,mp-570112,-0.06985998199999983,308.91340338296516
51114,CaMgSi,mp-5473,-0.41266807583333315,50.302739205515905
41916,ZrSiTe,mp-19917,-0.9165615566666668,35.157045546170025
9084,Ru,mp-33,0.0,307.5251447264424
127531,Zr2Fe3Si,mp-16336,-0.5210699216666667,165.00666572549588
145725,VFe3,mp-866134,-0.1283162975000014,193.4820236253666
2778,Nb3Ga,mp-2670,-0.17198075562500037,165.38248934640615
9209,CsPbBr3,mp-600089,-1.6280287180862067,12.869809228648098
5377,CdInPd2,mp-862374,-0.47321610749999987,113.01248488327042
51676,LiVS2,mp-754542,-1.317780822395834,63.915120560545304
115837,YAlPd,mp-12961,-0.8802337100000004,92.8833249542341
37430,LaCuSe2,mp-11790,-1.5713276717968752,56.74083052941061
66327,NiF3,mp-561428,-1.8322122443750004,43.64863966134355
104666,CaCuP,mp-8432,-0.8600553944444442,74.30143643031849
131303,SrCuO2,mp-5787,-2.0778125529166664,88.06034832524175
83175,Ca,mp-21,0.023542050000000092,15.120535489340678
22926,NaP5,mp-31086,-0.175052238036398,35.288344023346426
131964,CaPdF6,mp-7922,-2.6175304631249996,16.620456726327657
58680,Mn3O4,mp-18759,-2.0504092405418723,127.39631761486123
137586,As2O5,mp-555434,-1.5605577653571439,92.66745508112257
110398,MnFeAs,mp-505803,-0.14199358597701087,110.46464431218897
111631,LiMgBi,mp-570213,-0.4067920277777777,31.259351373287465
8868,NaNiN,mp-1029466,-0.09669965468390807,54.41494843278802
88064,Ca(SiPd)2,mp-567769,-0.7676904540000002,108.11191589012307
97558,SrMg2N2,mp-10550,-0.839982723333334,94.17111045520511
29023,SiO2,mp-558733,-3.009141277777778,264.81715213757354
77753,NbSnS2,mp-9586,-1.1088975390625002,70.70954757312728
117776,Ti5Si4,mp-505527,-0.7589934690740736,142.1856475094593
56436,CaPd3O4,mp-3315,-1.5143508737499998,165.79899561755278
136547,NbAs,mp-2059,-0.6680566124999991,161.51585224927243
84573,AgI,mp-22894,-0.46938852333333303,25.10373740285121
122608,LiI,mp-568273,-1.3890981316666664,19.9032488859537
50713,AlCuTe2,mp-8017,-0.5505022087499998,51.66965884420218
98883,Al(FeB)2,mp-3805,-0.400858757666667,202.81987717486516
59785,Cd2PdRh,mp-865926,-0.25683600250000005,122.80144463146598
78134,Ti2GeC,mp-9958,-0.8094008291666661,153.44802057940646
47251,CsNaICl,mp-1021431,-1.77867648987069,11.74263841406355
123473,PNO,mp-36066,-1.4801673511111109,53.745913740825884
18800,Mg3Cd,mp-978273,-0.05595468749999988,39.515457122509346
29913,BeC2,mp-1001023,0.84641468,82.71614631594177
134874,SiB6,mp-7700,0.4559381178571432,151.4253904790317
81493,Ti2MnSn,mp-999083,-0.14465159989942578,144.5646221383563
138730,AlBPbO4,mp-559276,-2.7180470855952388,77.94923321782463
60239,Li2TlPd,mp-865863,-0.3588496724999999,50.07519247042042
133910,LiCaSn,mp-30477,-0.5611635127777777,32.808210145077055
33069,Na2TlBi,mp-864898,-0.2863724016091953,22.624204316853536
28767,FeNiO3,mp-768499,-1.2759226680000004,162.55530461598693
9786,Sn,mp-55,0.06308779499999995,47.579846705905126
10487,VOF,mp-759276,-2.815830631666666,147.0511072221396
38680,K3BiTe3,mp-29379,-0.972201634857143,9.513364596218613
75397,Fe2N,mp-21476,-0.15352967166666667,244.29484477718194
9023,VAsRh,mp-20395,-0.46142920000000015,183.33926598800423
95954,ZrVP,mp-22302,-1.104892360277778,176.70919277691019
96969,FeCuO2,mp-510281,-1.3211148162499997,143.3257737871437
5882,CaCu2O3,mp-7466,-1.7233251491666663,74.41377956739174
123763,S,mp-555760,0.04094194020833283,6.261805380354893
3561,NiP2,mp-22619,-0.3715957480555557,144.56146298646377
128384,Fe4N,mp-535,-0.05659780699999857,193.25894568428097
70881,K2PbO3,mp-504935,-1.5912036205833335,38.04450486948944
114142,LiMnO2,mp-18767,-2.1445897290660927,103.27423256888972
81224,LaCl3,mp-22896,-2.867232885,31.580367401339956
9937,Ti2AlZn,mp-999072,-0.014344134166667466,96.42002927862447
135530,KPtN,mp-1029347,-0.2088451726666669,64.48062429488604
84562,KZnSb,mp-10161,-0.45439737100000005,23.978486050724875
78907,Li3V2O6,mp-762268,-2.4149655636363643,86.71845847442569
48564,V3Ge,mp-1221,-0.33502465250000046,183.8080572481369
2038,Y(SiNi)2,mp-5176,-0.8306985453333325,136.13911131851657
81844,BiRhO3,mp-573119,-1.3468585145000005,173.64816786759692
74818,ZnCl2,mp-567279,-1.5532661383333333,9.278433529628451
20151,Sc3InB,mp-19726,-0.3975810248333332,78.62395174373546
24522,Ba3MnN3,mp-9324,-0.8119177904187193,33.73820275927418
95769,Sr2PdO3,mp-4359,-2.3952415497222224,95.75418018540216
105394,MgNiBi,mp-29733,-0.20030982333333291,66.4875332580756
97079,ZnSnP2,mp-4175,-0.1910884966666666,63.76946477597305
68419,Rb7Au5O2,mp-510076,-0.6940675258928576,14.354401311849044
105897,W2C,mp-2034,-0.016312567499999393,334.1754456048781
61246,TlBiTe2,mp-27438,-0.523096723333333,28.7256895861174
118134,Ba(AlTe2)2,mp-38394,-1.1315166857142853,21.45806694931891
74328,TiBrO,mp-23002,-2.5380501452777775,14.833161412054729
20434,FePO4,mp-760343,-2.334485672222223,16.734625449059628
90223,TiAlCu2,mp-4771,-0.3049749333333329,134.46442078175815
1891,TiB2,mp-1145,-1.0556660338888892,253.29163796064805
52362,MoPt3,mp-13100,-0.12026009500000079,245.696332246704
107745,Te3As2,mp-484,-0.014905971999999679,16.098017946097897
133783,Cd(InS2)2,mp-559200,-0.8774585553571431,62.975291512977
134962,TiBO3,mp-9716,-3.0005036554999998,178.92636691134751
100486,BaZn5,mp-303,-0.22110776333333337,47.73448116767973
19042,BaZnO2,mp-4236,-2.365422885833334,83.06882793834126
52841,SiO2,mp-554573,-3.2657953574999996,26.03666492482499
94529,YMnO3,mp-20699,-3.0129120724195397,153.959537595351
89461,Zn3B,mp-971859,0.6166455127083335,95.21158653997703
110006,Y3AlC,mp-4448,-0.4184340980000002,79.64670404288435
120318,TiO,mp-1203,-2.8652158461666675,194.9173562813042
83027,TlPd3,mp-569785,-0.1934940333333337,132.07406687434366
108634,Ba2HfS4,mp-9321,-2.2084400275,57.60610559517078
10274,Nb,mp-75,0.0,174.47203811248608
9636,TeO2,mp-2237,-1.2695465283333334,144.7262310104628
108391,V5P3N,mp-8045,-0.8855355611111122,210.205732534427
138321,YOF,mp-3637,-4.229090799722223,131.42314360697185
62194,Na2HfN2,mp-1029309,-0.8947775766206888,37.776609237900736
134050,Co2As2O7,mp-22025,-1.565694291818182,110.92332611662604
98679,Hf(Te2Cl3)2,mp-29419,-1.3083715681818178,7.033728310377458
79630,MnCoO4,mp-752945,-1.4184078104885067,18.068984955104415
34190,MnNi2Sn,mp-20440,-0.17108835323275873,145.74210759517555
108531,GePd,mp-1424,-0.4611656774999995,122.74045306702764
113503,Fe2SiO4,mp-20313,-2.301361510714286,125.14351710282307
88018,TbRhO3,mp-5692,-2.5764696895,185.50505892391445
112051,LaCuTeO,mp-546790,-2.177471895,67.05267614605853
139380,Be5Pd,mp-650,-0.3153419424999999,145.9033062264445
55106,Zr2NiP,mp-29153,-0.9924390145833328,151.77961483403044
57057,KCuO,mp-7911,-1.2247965501666662,30.741105603994075
112625,Fe2As,mp-20426,-0.06830732666666606,140.23559887527165
11345,Fe3C,mp-613523,0.12327575750000008,180.28122466793275
3866,HfC,mp-1002124,-0.29839561500000045,163.43913044326933
126028,Fe3PdN,mp-16334,-0.19772158699999948,187.480450633182
140230,NaBiO3,mp-23054,-1.5840924983103448,58.279697017055675
145087,Na3PS3O,mp-11738,-1.500918565295438,27.138272466605642
46774,SrCu2O3,mp-3255,-1.6830108469444447,94.58161848465832
70811,CsVN2,mp-1029293,-0.9158711057327595,104.269555796666
21471,GeAs2,mp-17524,-0.04107073958333333,14.814055380346169
118176,ZnPtF6,mp-8256,-2.034821689375,34.81888937383289
53304,SrTiO3,mp-4651,-3.552249219,168.4715734450354
85085,Ge2Pt,mp-1543,-0.3401975716666665,115.41436946372298
120163,W2C,mp-33065,-0.010993379999999794,333.4274177258285
40938,TiTe2,mp-1907,-0.9781456111111121,17.639714308773918
36014,SiO2,mp-7029,-3.2642715899999994,13.744916636478035
69434,LiZnSb,mp-9919,-0.42964430777777807,46.523816176643436
111733,Rh3W,mp-30866,-0.26208491125000144,282.9558405787013
47552,KMgSb,mp-7089,-0.6499148243333336,22.604028444683866
18596,SiGe,mp-978534,0.07664530999999997,74.2260927631761
35115,Mn3VO8,mp-756398,-1.8906991228160936,41.94291977735171
142384,TmAgTe2,mp-12953,-1.0837420108333333,48.82194214798139
120456,CoAs,mp-15679,-0.2696237900000007,163.52683180878768
95733,As,mp-11,0.0,40.23288513297928
75201,CaInPt,mp-570689,-0.8215951866666664,72.03066992992198
19749,Eu(MnSb)2,mp-582227,-0.2939352481724143,39.26009826719988
32879,Ca3SiO,mp-11649,-1.5981094470000001,58.31543352621046
32210,HfGeTe,mp-13964,-0.8056413966666666,94.97734236476103
49769,BaAl2,mp-551,-0.1988490883333339,42.32584855529072
37990,CdPd,mp-1696,-0.41008540999999976,109.58971537811219
140757,Na3HfF7,mp-34579,-3.613345253377743,40.27826052033322
9803,Y2In,mp-21294,-0.38681806444444494,53.12359355901414
20974,NbSiPt,mp-10469,-0.774564354166665,214.9527932527547
81551,Zn(GaSe2)2,mp-15776,-0.9152755777678573,36.79493592818963
27396,Li5Mg,mp-981935,-0.022566929444444384,17.309186550066194
99945,FeOF,mp-752939,-2.004029065833334,131.53501986170855
49478,AlCoO3,mp-776216,-2.241457380999999,76.74056022153266
11180,ScCd,mp-1211,-0.2901624574999997,67.04158082899131
45421,Rb2CdO2,mp-28364,-1.3610515665,36.27039349775224
16929,Y2Al3Si2,mp-9177,-0.5334459947619042,86.07109888079464
114327,Te2O5,mp-12177,-1.4178695207142857,46.19707375204924
45493,Ti3AlN,mp-10675,-1.017868215,163.27103934795673
62975,Zn3N,mp-981366,0.6528500287499996,105.09886812706917
107934,SiC,mp-7140,-0.20093108499999968,212.38174617776707
126380,Ga2Pt,mp-22095,-0.5811223349999999,113.66220724398693
43883,Ti8C5,mp-27919,-0.7190868112820517,169.9106123273737
142092,Li2MgTl,mp-2987,-0.1959954799999999,28.932392956639674
58300,N2,mp-672234,5.2124254275,0.8410141520370619
69607,Ca3FeN3,mp-1029659,-0.9280640621428569,76.09324205760768
82457,ZrIn3,mp-570578,-0.21133414000000084,72.33678150802388
20162,ZrInCu2,mp-623134,-0.2211465825000003,116.83432360740478
13384,Li3InN2,mp-1029562,-0.44553923750000024,85.58064157643577
85250,Mg2Au,mp-11250,-0.44220205805555546,58.41650591051461
84163,HfSb2,mp-2180,-0.5306741212500002,84.17649977762295
118486,BaCuF4,mp-12268,-2.9994217608333336,53.715354563122276
100419,Be4B,mp-27757,-0.016717138833332968,137.78563138230004
67982,MnCoO4,mp-756184,-1.4207410896551735,36.06754322940821
58985,Cu2WS4,mp-557373,-0.7428920189285709,15.515278250705247
24854,Sc2BeRu,mp-862553,-0.33995264499999944,111.31563043963459
45671,ZrSeO,mp-756361,-2.693179919947917,121.84774664792538
58986,Ti2Bi,mp-568069,-0.1315885222222223,72.34902042131746
127374,AlAgS2,mp-7885,-0.9384841382291662,76.31697900223983
6132,Mg2PdRh,mp-864969,-0.64056654,107.06294646794828
26680,TiZnPd2,mp-865079,-0.5817453308333329,147.41282031839455
119832,ZrSO,mp-3519,-2.8474194235416674,130.14857314559856
107496,TiGaPd2,mp-866140,-0.6581097702083323,164.36718679950843
108971,Sc3(NiGe)4,mp-22490,-0.7390669995454547,126.6496306181759
68272,Fe2P2O7,mp-18849,-2.3728828656060603,75.8505460049828
104462,Cr3Fe,mp-1008285,0.25940744999999943,253.03808030939564
90102,ZnNi,mp-429,-0.254970535,146.0457645667749
72035,CsVCl3,mp-22977,-1.9026452415862067,14.233184238673765
130551,Ba2HfO4,mp-754363,-3.536361635714286,109.90350234123572
93992,Ba3NaN,mp-8868,-0.33616810531034497,11.2838668376392
125223,Sr3N2,mp-986716,-0.6505548170000004,50.655829369212675
73994,SnCl4,mp-29866,-1.4271986910000003,0.7311193957770716
42528,Cs2Pd3Se4,mp-11694,-0.9538089416930072,14.827759113709417
14550,ScSiAu,mp-9023,-0.7202678816666666,112.80630292816058
63282,FeNi3,mp-1418,-0.08976254499999925,203.10862845342086
95316,Zr2Ni2Sn,mp-20146,-0.5689627440000009,132.54457868475953
13796,ScZnCu2,mp-867896,-0.2553761687499998,101.60555094985901
113164,Na2NiO3,mp-755764,-1.2873001896839078,71.75681229101049
6200,AlSb,mp-15621,-0.1384959218749997,48.89332543883619
101230,PrFeO3,mp-22341,-2.7599986039999997,162.84904814090214
9934,Li6MoN4,mp-8804,-0.8597730768181816,83.49811684561041
33737,HfO2,mp-741,-3.8805271166666664,224.97603320588104
6639,InPd3,mp-31337,-0.4353774174999998,140.1430733805458
133585,GaCl3,mp-30952,-1.5678765756250002,1.3136306931686745
39002,Be12Cr,mp-1590,-0.050614865384615154,128.35898267377692
40049,MnAl2O4,mp-755882,-3.047750007561576,180.21967796142005
58366,Mg3Pd,mp-18712,-0.42137400041666684,59.412401202407025
126927,Hf2CuSb3,mp-19928,-0.4493893283333333,96.17060338078241
8505,CoCu2SnS4,mp-11770,-0.5631033665625003,71.7083420824932
101658,Rb2WBr6,mp-29481,-1.430913882222222,14.60777731611655
37120,TiAs,mp-10052,-0.9061694191666669,116.1166912090662
85255,Cu,mp-998890,0.036640020000000106,145.87229552135733
144868,ScCu,mp-1169,-0.2807952775000002,81.1563903562045
64331,NaV2O4,mp-783905,-2.4247442502216745,75.23121574536967
35451,Nb3B2,mp-20689,-0.6315941196666671,239.52783320645298
108298,NaCuO2,mp-997041,-1.3546195603879303,50.719930601774536
129948,Cr2O3,mp-19399,-2.366587769,203.30498586671007
136035,MgInPd2,mp-865043,-0.6723600825,108.78625036099162
41008,Mg3Mn,mp-978285,0.1731482030172411,46.36295354323923
92918,Zr(SiNi)2,mp-7707,-0.7937860339999994,170.8060501476694
114335,Sb2O3,mp-2136,-1.7517375020000003,19.11386296970909
117418,Sb2Pt3,mp-15659,-0.3607295339999993,135.27600912645738
137283,Ag,mp-8566,0.007226485833333296,86.31553597380895
9002,Al2O3,mp-1938,-3.3331950944999997,230.85931057884778
144708,Cu2As,mp-7474,0.022640286666666398,107.57635206007139
131822,VRh3,mp-1185,-0.36499331999999995,250.7176806516302
115391,LiInSe2,mp-20310,-1.1052252107552079,30.234667343240737
135548,Nb5Te4,mp-30797,-0.5417724388888898,89.87191064851778
59689,SbPdSe,mp-4368,-0.6384180474479161,84.28155199580357
125550,LaRhO3,mp-5163,-2.545009926000001,173.2002074459794
134414,LiZnAu2,mp-861932,-0.4297917583333333,91.39269945589658
70794,InPd2Au,mp-863724,-0.40128676500000005,136.61390148649906
135261,CaSn2Pd,mp-11958,-0.6663131699999996,60.00737081420304
48821,NaBr,mp-22916,-1.8446649170258618,27.05414901277016
15560,RuSe2,mp-1922,-0.7395663657291666,138.11240534517583
58296,Ge3As4,mp-569600,0.006214434999999899,47.011811033088065
62035,InPd2,mp-22646,-0.5160472699999996,128.0964688839773
120851,CaIn2Pd,mp-22717,-0.6137339812500002,59.35317650942357
106997,YbBr2,mp-22882,-2.4572844883333333,19.688530609828938
103178,TiTe,mp-567832,-0.8181256916666673,87.08255289109104
54428,Rb2NbF6,mp-8994,-3.236980702222222,23.32702702792632
111120,LiN3,mp-2659,-0.4021599720833322,34.33566626559455
82786,Zr2Pd,mp-266,-0.48803257333333266,123.41172697730286
89217,YZrSb,mp-31438,-0.8849647072222228,80.08935513445019
99277,V2FeS4,mp-561419,-1.0978459860714298,90.4316777082764
97025,Mn3CuN,mp-510380,-0.17547053775861912,160.18713955947916
34843,Mg2PdAu,mp-864972,-0.6740633625000001,88.08484393261432
56122,YTiGe,mp-10455,-0.6843872599999999,84.49518406980297
88950,TiBeCo2,mp-866152,-0.43456043958333357,192.4092439865268
28708,Ti3Te4,mp-15669,-0.9595486614285724,59.54604186896993
61989,MgMoN2,mp-864954,-1.0471865200000003,246.3971645104652
64995,Y(MnSi)2,mp-3854,-0.6052444465057476,127.57355747015865
133881,Ba(CuSe)2,mp-10437,-1.0369736029374998,54.0683655319489
114877,NbRh3,mp-2449,-0.49995170000000044,248.87228437835086
95742,CuPO4,mp-25886,-1.801418369722222,59.975156704009734
108303,Zr3Au,mp-11263,-0.34749160125000067,118.4344644478656
70370,FeCuPt2,mp-3702,-0.17740827500000034,197.5537547008203
124547,Cr5B3,mp-15617,-0.4156522671874985,291.04539040803326
144736,Zr3(Cu2Si)2,mp-7930,-0.5127658655555547,137.71908943654068
40326,ScIn3,mp-20539,-0.29833564374999977,56.34901181459193
65054,Te2Mo,mp-7459,-0.5419246191666668,19.934425602283113
110525,Li3NbS4,mp-755309,-1.3906942278124994,10.226559072091355
100348,FeTe,mp-21273,-0.27004744999999986,20.4182484929133
57749,LiZn2Ni,mp-867252,-0.25589050333333363,85.69651938664815
59755,Co3SbO8,mp-752854,-1.268432604583334,33.05333499869212
121982,Ni3S2,mp-362,-0.5718173232499992,126.92750586374514
112004,Mg(SbO2)2,mp-27219,-2.170514942499999,48.54885566329202
17241,Mg(AlSe2)2,mp-9479,-1.2222930656249997,14.719674506622031
69879,NaAgO2,mp-754326,-1.010595745804597,56.391390253979466
139900,TbAs,mp-2640,-1.5311656874999997,76.83666607020902
110608,CoO,mp-22408,-1.2843806087500012,129.36041643640235
1770,TlInS2,mp-22566,-0.762468114895833,46.64366307790106
137324,NaLi2N,mp-10525,-0.028544154554598133,59.34265124790062
27580,Ba(AlSi)2,mp-12863,-0.2606747260000006,42.0620231397145
60585,TiO2,mp-390,-3.4952400877777783,179.32150795084422