,formula_pretty,material_id,formation_energy_per_atom,k_vrh
142261,Ni2SbTe2,mp-3250,-0.4674334309999999,40.89299556885784
121634,Na4WO4,mp-754694,-1.8533283995785448,42.197569314285715
143851,LiTi2O4,mp-5670,-3.2462103921428564,132.11946570837824
144135,ZnPd3,mp-971909,-0.31889551125000004,151.19817583674472
134349,TiAlAu,mp-16481,-0.49771161777777867,128.1136804153652
139972,CaFeSiO5,mp-1046733,-2.6252391787500002,97.97220236629404
72068,YCoC,mp-21422,-0.3090724355555565,142.52229246689714
118010,Li4WO5,mp-690542,-2.3375955218333333,57.487988476777325
103685,Na2PtC2,mp-4366,-0.053895778620689325,51.56741670103436
29578,K2AgP,mp-9778,-0.3443498602499999,22.87285780338694
97825,TiCrO4,mp-755596,-2.703237982222222,180.70032589717124
11708,MgB4,mp-365,-0.13883316333333298,159.22017275271293
15795,LiMg2,mp-865939,-0.051074661111111176,29.628384761845837
112909,MgTlRh2,mp-864902,-0.2653749008333328,130.64203411588608
144315,Si3N2,mp-971682,-0.6587529175,140.47932602179424
117310,K2O,mp-971,-1.247857583666666,27.116150912370664
36650,Hf(CoSi)2,mp-571367,-0.7360970340000008,190.49955126676366
24773,Li2VO3,mp-861577,-2.475888592361112,107.75161242723851
7644,BaSbPt,mp-8606,-0.9404453400000001,57.522356663884416
7757,BePd3,mp-13453,-0.38197974749999997,161.75165962315154
42369,BiO2,mp-557993,-1.4597641266666663,40.693579712731825
63245,TiMn2Ge,mp-866376,-0.3401090560488518,195.41934254186566
74352,Nb2Al,mp-18427,-0.293137022,160.52537160491346
36308,Mg2CrN3,mp-1029520,-0.8666889083333338,122.59827786562359
49044,Si12Ni31,mp-27276,-0.4711331632558142,198.75721966177005
71094,CuCl,mp-22914,-0.6852623050000002,48.315409858928035
16047,Li(Fe3Ge2)2,mp-624492,-0.16761400121212297,135.10793111988343
93999,SrLi4N2,mp-15845,-0.5408831642857146,52.49011206512711
25873,Cr2Te3,mp-2750,-0.4655042084999991,41.46398141511257
77697,Sc6FeSb2,mp-11201,-0.6234422666666661,72.00891482446922
49513,AlBN2,mp-1008557,-1.1382442697916666,257.91818120439063
104896,SiC,mp-7631,-0.20451779583333263,213.09857918208726
6151,NiP3W2,mp-29618,-0.407393361666666,204.65492642109314
18930,YMgIn,mp-21503,-0.4130128788888893,53.937639338591524
141941,Ca2Sn3O8,mp-1386610,-2.5545313888461534,106.97443703751246
75768,KNbS2,mp-7938,-1.4144719648125,73.12442879246626
23080,ScAlCo2,mp-862602,-0.5154284212500002,147.51092037766256
36425,Na8SnSb4,mp-3138,-0.44652908672413827,18.156425392715562
119756,Mg3NF3,mp-7604,-2.7908290574999994,108.55963444392307
119941,CaNi5,mp-774,-0.11092726166666722,125.00282015202548
6487,Si3Pt,mp-972763,-0.016973765000000363,115.43376972620723
95036,CrCo,mp-1010071,0.1535611025000012,210.39983703743098
21188,TiCr2,mp-568636,-0.10249348902777793,197.62817500829937
10978,YbSiPt2,mp-864645,-1.0432835449999995,129.15869337826734
118864,VRh3,mp-866161,-0.37994240999999995,251.30226496802777
42733,ScRh,mp-1780,-1.0312111024999995,137.71392428899287
62475,CO2,mp-11725,-1.76317916,4.967243722583413
102873,AlCuSe2,mp-8016,-0.8615172974218748,62.51523100285671
106622,AlPS4,mp-27462,-0.9194032793055555,7.915871577137372
111471,Mn2O3,mp-565203,-2.013759209047413,150.1147697439831
97757,V2Cd2O7,mp-18740,-2.0833823577272725,85.07562369798872
143275,MnAl6,mp-173,-0.1736976254187194,103.79814447846809
61259,W(OF)2,mp-759764,-2.484498590999999,30.92238654137002
139351,Li2O2,mp-841,-1.6501702366666664,71.34686363172023
88115,Mn3GeC,mp-20180,-0.05811040375862149,241.5799980774031
33395,ZnSiP2,mp-4763,-0.3134300504166667,84.8541928373518
34908,Cs2GeCl6,mp-27882,-1.809585630095785,8.257661139794997
106305,Ca2PdAu,mp-863744,-0.7441345449999996,52.85831718669091
128401,HfZnN2,mp-1014251,-1.1712421775000008,184.51799352583527
121605,Cu3AsSe4,mp-675626,-0.38305662804687435,61.650683619305795
59875,MnAsPd2,mp-12559,-0.2411324407327582,130.4605058617911
94659,Si4P4Ru,mp-14983,-0.358363407592593,119.8324470882722
107542,TlTe3Pt2,mp-9251,-0.6425049030555557,22.098991730179307
48318,Li2O,mp-1960,-2.0615979138888885,78.13029479834442
67631,Na(CuS)4,mp-29069,-0.595812836561303,58.24663475777761
92053,TiN,mp-492,-1.897004114166668,280.93937413147614
138740,Al3Ni2,mp-1057,-0.6130797780000001,130.38294161497296
139361,Zn3C,mp-981336,1.0455029100000002,101.72375412353779
34642,VBiO4,mp-23044,-2.1349448025,127.6034369074928
3050,La2S3,mp-7475,-2.4943648978749997,69.16193608267577
45454,Mn3ZnC,mp-2930,-0.03187443275862165,192.0847422836863
90644,MgV2O5,mp-1411095,-2.5632700618750004,82.79996887499743
72405,MnInPd2,mp-31328,-0.3933454669827592,127.35737152457679
53243,MnGePd,mp-610972,-0.29140981875478883,127.36203193187679
60919,BaZrN2,mp-3104,-1.4247567975000006,99.95668306744857
14666,YNi4B,mp-7559,-0.4827271093055548,156.3861551138035
1849,Si2B2O5,mp-972793,-1.0155801337037036,160.30935230868602
25488,Ba(AsPd)2,mp-8237,-0.7632649979999997,55.291750316715955
130955,MnZnRh2,mp-864987,-0.30163440948275877,168.41090432732494
139105,LiBeB,mp-1018783,-0.1226927041666664,55.27380185246892
118315,GaN,mp-804,-0.65681686875,171.71304999649288
53981,Be2PdRh,mp-866115,-0.6506070975,198.2933298477252
3592,SrGePt,mp-21164,-0.8975426163888885,68.14437826065576
11147,V5Sb4,mp-30536,-0.21826562888888962,89.3046791626565
137820,Na3AlF6,mp-3416,-3.394868508965517,50.92023807239832
40198,NaSi2N3,mp-8973,-1.2068158035919545,185.02565118543765
69847,YPt3,mp-2403,-0.9691539091666668,171.87760426622077
19548,K2PtS2,mp-7928,-1.1332673064499992,35.57175731337377
71862,Li2NiO2,mp-19183,-1.6050301393333335,88.15870779291393
125967,BeP2,mp-27148,-0.3208304118055552,89.44914140892308
19558,LiVRh2,mp-867829,-0.4130521308333339,178.7569474323409
19976,SiRu,mp-189,-0.6136125187500001,204.4644479526085
129022,ZrNCl,mp-568592,-2.0903818983333338,24.125364613195536
144083,In2Co,mp-20296,0.03264575416666619,88.53584242534995
139964,Y2Mg,mp-865583,-0.06690345111111107,41.493231881008384
67922,Mg3Pt,mp-569265,-0.5744776675000001,70.78226445790673
47930,LiTiO2,mp-25417,-2.957393104166666,132.99493038267366
134353,AlFe2Mo,mp-672259,-0.1760398875,225.3101051711314
89813,In3SbTe2,mp-676518,-0.31150499833333356,10.48796696908223
37929,MgV2O5,mp-19003,-2.6382909418750007,100.50968352706215
102165,Sc2O3,mp-755313,-3.9300005139999996,174.28877478689458
24426,MgPd3,mp-7753,-0.48621333999999994,139.74289705908484
125100,TiSnPd2,mp-865679,-0.6039056495833339,146.28697664399056
36367,SrMg,mp-2564,-0.057828018333333286,19.07086731711305
8677,ErAs,mp-1688,-1.5128535875000004,79.44403472775738
74071,LiAl,mp-1067,-0.17763832666666657,49.794395688917874
91137,Zr3(CuSi)4,mp-10244,-0.5582203909090908,144.8562769106598
4123,AlTlSe2,mp-9579,-0.9806690182552078,25.021751811536227
25692,ZnO2,mp-8484,-1.058444209166667,143.8331976040082
130784,Mg(AlS2)2,mp-16755,-1.4478153032142862,18.60706772641892
10244,BaAl4,mp-1903,-0.24118236199999998,50.96427171466897
142378,Si2Ni6B,mp-4720,-0.46313584768518407,209.85900444238356
20968,CaHg,mp-11286,-0.5521203774999999,35.02446618075834
62378,Y2Pd2Pb,mp-21508,-0.8402324656666664,82.49297424926924
129098,CeIn3,mp-20369,-0.4035666287499997,48.81387557784171
97141,Na(WO3)2,mp-690535,-2.1767651118390807,179.69093628064348
71630,CdAu,mp-16886,-0.16032053944444435,91.71306389165619
2444,CaFeO2,mp-19842,-2.3024049675000002,109.7162430519229
72973,InGaTe2,mp-20408,-0.502595328125,22.42023281829968
37499,Mg2Si,mp-570657,0.4539050816666667,43.83784562986828
43748,Hf3(NiGe)4,mp-10076,-0.6675136600000012,159.71384304832333
124711,Zr5Te4,mp-350,-1.044782446666666,66.98571761241006
34334,HfZnNi2,mp-864807,-0.4307055275000007,150.56515167303593
59966,BaSe,mp-1253,-2.283762816171875,35.619828430420775
63314,CoOF,mp-758859,-1.5674022799999996,158.48423404823524
107413,ScAlO3,mp-4471,-3.669621607,206.10500994080476
3265,As2O3,mp-1581,-1.6290845505000007,9.785550803909512
116809,Ba2CuF6,mp-554352,-3.377522933888889,57.82486009986489
71244,Ni3N,mp-2033,-0.05959301874999934,197.02979789554917
97425,ScFeO3,mp-771123,-2.779516663333333,171.21647445294485
69690,Zr5N5O2,mp-776331,-2.2074129137500003,221.66217311442125
99234,Ba(MgPb)2,mp-20452,-0.37572263700000014,32.00565679174662
63877,K2WCl6,mp-568914,-1.7578830606666667,12.231978261886187
135332,Cs2TiCl6,mp-27828,-2.2443302487994887,8.77051547185394
19463,YSn3,mp-11571,-0.43381893041666686,61.92559383364878
90689,ScGa3,mp-932,-0.5006723293749991,72.66926483174107
20851,MgFeRh2,mp-865187,-0.29936372000000055,155.17514833724658
61901,TiCl2,mp-28116,-1.8052848177777783,6.344776285231459
109169,ScNbRu2,mp-867146,-0.5343551287499988,194.7994286732423
19278,F2,mp-561367,0.009340027499999959,5.301289791968937
8781,SnC,mp-1009820,0.8168832674999997,120.96631034330736
119532,GaCuCl4,mp-29362,-1.3148972354166666,9.704570691774151
25346,Mn3CuO8,mp-756525,-1.464931576149425,40.37807420585252
101240,NaNiO2,mp-19149,-1.3379307347629306,99.78324739820994
3491,YBi2BrO4,mp-553243,-2.4036058767708326,65.92429749275732
9337,AlFe3C,mp-22793,-0.16057992400000104,230.12027896058686
44661,CoTe2,mp-9945,-0.4681120683333333,84.59588250836464
87162,NaBrO3,mp-23339,-1.0029033018103448,27.148426877634975
2996,K(CuSe)2,mp-567657,-0.7211713455374991,34.177734855434785
132943,Li4Fe(WO4)3,mp-776460,-2.209881925166666,132.87972001481333
10192,CrGaFe2,mp-30570,-0.027099201874999146,251.82793506853847
68117,Nb3Bi,mp-568014,0.032512353749998724,158.23844478692627
143825,CaAlPd,mp-571039,-0.736524825,61.804973275653566
96844,ZrMnGe,mp-20059,-0.5708625418103447,98.93265288889677
39354,Dy2O3,mp-2345,-4.009681254999999,142.3301497472275
36219,Cu3Pd,mp-672265,-0.1045356117857134,148.12500338182787
13710,CaGa2,mp-992,-0.48297381833333297,42.56970220015007
31512,LiB(CN)4,mp-13590,-0.16112058525000067,29.838595072919446
45892,Ba3N,mp-10736,-0.4008138762500004,12.669975024400292
31902,HgI,mp-22859,-0.44656254000000006,9.793073178812893
101511,Li2WS4,mp-861184,-1.135703251309525,5.7536016454145456
137531,NbSe2,mp-571270,-1.1401268932291668,23.643016625879753
99459,VOF,mp-752958,-2.8297528733333337,45.50520438026764
133887,MnZn3,mp-11504,-0.03106088448275912,88.10285835311089
142563,Sr6Cu3N5,mp-29136,-0.6145950182142873,61.11761528030834
113058,Al2O3,mp-32570,-3.394140574,196.6123923808857
30804,Ba3RuN3,mp-1029537,-0.6075384014285713,46.06292048872699
37359,Rb2MgF4,mp-8861,-3.344638556428571,39.847951458216315
29127,MgCN2,mp-9166,-0.7975332049999997,96.4324504275108
60275,NiGe2,mp-29900,-0.16395234833333325,109.23781357224979
108390,Sb2S3,mp-2809,-0.5511049863749996,16.31002393457672
48946,Fe(SiP)4,mp-9198,-0.28286322037036943,115.23831492452364
78552,SnSe,mp-2693,-0.6659178236718746,50.180566981699855
40433,Zr5Sn4,mp-543001,-0.5926891699999999,103.55966066513729
54582,CrTe2,mp-685055,-0.47679832000000033,29.508217138710208
61864,Nb3Ga2,mp-11393,-0.3632177859999999,167.16059802445625
128953,TiFe,mp-305,-0.4208365316666658,193.94290726282787
10077,Br2O,mp-28460,-0.0661121799999999,6.21587056264344
118949,K2PbO3,mp-22756,-1.5906176076666665,38.90905299714508
16034,Cu3SbS4,mp-5702,-0.4757021240624999,68.04023226245354
146034,BaTiO3,mp-5986,-3.4890304336666658,104.22029884588056
107026,Al2S3,mp-2654,-1.3583442052083337,32.56921019650294
66550,CaTiO3,mp-4019,-3.5560871571666666,171.9945579315089
134512,Ce,mp-28,0.001560065000000499,38.71807098123135
84439,Cs2PtBr6,mp-30062,-1.41246394454023,8.198358858048095
14486,NbAlFe2,mp-865280,-0.3757604849999998,211.83933718245942
95646,MnNiO3,mp-19331,-1.6192723405862068,175.163732788921
49160,V5Te4,mp-9948,-0.49330469777777824,50.37193642900315
50058,ZrTe,mp-568865,-1.0845190787500005,87.1773728008315
67452,PPbS3,mp-20199,-0.7265524800416671,28.05197583215384
132695,VSi2,mp-10711,-0.4367233555555564,174.4981466931887
141063,AlV3,mp-1387,-0.13424391499999988,159.32999491114006
17185,Ca3Al7Ag2,mp-11430,-0.31012263444444405,62.98654357647693
114509,Si3W5,mp-31219,-0.148013859375002,267.1357439884306
112213,CuF2,mp-1229,-1.8129397616666667,58.64687292115674
69396,CoPt3,mp-922,-0.053970363750000416,220.6369594761534
78958,Sr,mp-76,0.006400903333333208,12.060328958824645
67628,PbCO3,mp-19893,-1.8096030824999993,55.82821789952485
115237,NaCoO2,mp-18921,-1.5685470678879305,111.0474126270011
64140,NdI2,mp-28753,-1.5473327333333338,11.222316152806307
128597,ZrO2,mp-754403,-3.798725489999999,173.61375685503077
2665,YCd3,mp-571059,-0.2727191866666665,55.43862994303173
145217,TiCo2Sn,mp-21467,-0.38394955708333356,168.18281506686304
123295,S(OF)2,mp-8537,-1.9797331201249988,1.8947969491697054
142250,SrCN2,mp-12317,-1.0384971091666673,57.20607469955061
118800,YMg3,mp-865376,-0.09079441416666656,40.12903944647255
128261,Y2ZnRu,mp-865592,-0.35893983708333366,86.60181121356474
122172,Ca2Co2O5,mp-1371368,-2.114430003333333,110.25344128428083
88627,KZnN,mp-1029336,-0.02955449350000035,36.21947728705375
30866,KFeS2,mp-3827,-1.0015904073125004,18.64919103033831
121151,BeNi,mp-1033,-0.46828125249999974,181.50658043445205
44352,GdFeO3,mp-600576,-2.7971758054999993,126.38316138062243
64206,Sr2MnMoO6,mp-555929,-2.649397158126437,122.11639703864051
40912,Li2FeO2,mp-754868,-1.825342791833333,111.10842264506522
140758,V,mp-8632,0.24714039999999926,178.8899579152201
53640,Nb6C5,mp-2760,-0.5454537227272724,238.860830260856
88873,C,mp-997182,0.007755827500000478,115.03190534736896
120152,TlPt2Se3,mp-541487,-0.6777812917274305,23.771130140751957
2576,YCuSb2,mp-19943,-0.7118801979166669,70.25405166827076
688,Mg3Cu,mp-978279,-0.007181777500000042,46.28670493714773
135519,Cu2HgI4,mp-568598,-0.4438017307142853,18.23687833477642
35920,MnFeO3,mp-674482,-1.8242621658362055,164.06256462123613
18221,Eu(MgSb)2,mp-582736,-0.8096181210000004,38.61804771843735
14392,Al4Mo,mp-30180,-0.2516156166666671,111.29799234986929
72329,KCu4S3,mp-27677,-0.5932982465468748,47.52304189049362
63920,MnFeO4,mp-761315,-1.5111327971551727,151.67125891736066
76422,Sn,mp-949028,0.029621803478260954,31.793966857219864
13458,Li9(CoO4)2,mp-755939,-1.8213613784210534,70.70142719765856
112098,MgZn2,mp-1124,-0.1296061591666667,63.749104917928776
136619,Sr3Fe2S2O5,mp-1046611,-2.075073025104166,78.98200397946968
141834,KAgO,mp-1009048,-0.5889345215555549,41.900692959110614
130886,CsNiF3,mp-557772,-2.608865408086207,25.123006475703015
140981,Li2CuO2,mp-4711,-1.6623768453333334,88.73005107394465
143232,Cs2CuF6,mp-28692,-2.2822790700957847,15.60697562127633
102281,Sr(Si3N4)2,mp-567278,-1.3035382451111124,147.6806485765826
121654,Mg2In,mp-31326,-0.07329850111111114,39.92747292459332
113461,Mg2PN3,mp-3933,-1.116398228055555,150.42302239179628
106201,CoBMo,mp-21347,-0.43806527222222275,304.8255312232104
124845,Sr3RuN3,mp-1029750,-0.6887017599999997,61.581651107043335
66294,Co2NiO4,mp-38683,-1.196680113571428,159.91816707740497
128049,NdBr3,mp-27975,-2.3103355893750006,9.162874541482436
118254,NaPdO2,mp-755378,-1.178613644137931,89.7135383069865
88589,ScCd3,mp-30494,-0.21440229624999985,61.01994746605551
141189,Rh,mp-74,0.0,253.4567194561315
2111,MgSnN2,mp-1029791,-0.533702746875,120.28990837537684
79957,AlGaN2,mp-1008556,-1.105076054375,184.15948591302447
35090,CsCl,mp-22865,-2.2072112289655172,15.225482459022302
113330,MgAg,mp-2696,-0.25070454333333325,64.63375134227627
15383,NbAlRu2,mp-11537,-0.6469519049999999,230.5191340013132
1659,Zn2RhAu,mp-864844,-0.3146363875000002,143.95689101935767
21172,KAlF4,mp-5347,-3.6359540938333335,57.373378949846895
141975,Ca(ZnP)2,mp-9569,-0.700753461333333,66.9045280220065
121248,Mn2P,mp-1849,-0.5138673952873568,194.40715523579973
94760,Zr,mp-8635,0.0392637399999991,90.12674026296368
129693,Li5Sn2,mp-30766,-0.3967511166666665,30.722972305350982
140180,Na2FeO3,mp-760247,-1.633598554683908,86.46660111380459
22733,Sc3PbC,mp-21035,-0.6774342450000006,96.96002458460902
20794,Ag2S,mp-610517,-0.19850624715277773,26.17457323495075
44202,InCu2,mp-12118,0.09884737666666688,93.3382281422299
137209,Zr3N2,mp-866083,-1.5298532970000012,195.85725995231013
7515,LiTePd2,mp-861733,-0.522179650833333,95.77047963854123
111111,ZrSbPd,mp-22036,-0.7482462908333337,128.47912651093623
10882,Cr3Te4,mp-570122,-0.3814662271428578,29.67157260256998
31642,Li2FeF4,mp-755154,-2.7095447023809527,61.32756472424082
28925,SiO2,mp-7000,-3.2566051611111106,29.031325711435656
91499,Sr(MnAs)2,mp-4343,-0.448182350505747,54.25132554092855
97349,Cd(CO2)2,mp-555064,-1.567302188571428,43.60117476688493
79291,Hf(FeSi)2,mp-504741,-0.6303312564999984,192.71110093592947
102018,HfPd3,mp-11453,-0.8830999568749993,178.51667442088856
9032,Li2Sb,mp-9563,-0.6301295811111112,31.915065621525684
64568,NbNiP,mp-20932,-0.8393726344444445,217.78277140493827
48354,FeP,mp-1005,-0.5984293366666673,159.22917121474967
139464,Ti3Sn,mp-21030,-0.29702299750000005,117.1337533022359
31160,BW2,mp-1113,-0.26186117805555637,329.8215672027768
134489,ZnGeN2,mp-1029779,-0.30473415874999965,148.68894882532675
109034,BaPd2,mp-1687,-0.5777919516666667,70.84626504254277
40450,Li2Si2O5,mp-4117,-3.015913218518518,78.80539403791403
62392,InAu3,mp-569683,-0.12127075624999994,108.24700914096972
80988,CoP2,mp-14285,-0.5329589272222227,163.16539836117926
101387,Pb2Au,mp-22795,-0.08086283666666698,57.224830818083134
27538,ZrCo2Sn,mp-22503,-0.3947324462500008,153.30937366197347
92409,MnAlRh2,mp-10894,-0.6837290594827579,184.44847684188795
130371,VRh,mp-1251,-0.3605693849999998,233.04698686962067
104125,FeCuSe2,mp-505244,-0.3696868449218753,27.743467033684098
110260,ScGeRu,mp-9223,-0.7940437972222227,152.27820949145752
146100,Li3Co,mp-976017,0.3288236162499998,25.79344528102145
3685,Si2Pd9,mp-505071,-0.45199598954545456,163.2779860179939
34282,HfSi2,mp-1069,-0.515201400000001,131.91911800544858
24609,TiS,mp-557762,-1.5804151365624992,128.28266996228007
21919,MnAlRu2,mp-864980,-0.41414462948275954,218.07298246583295
87971,Ag2CO3,mp-4691,-1.0936600005555561,45.181695097688554
59508,TiAu4,mp-12635,-0.2789960706666662,143.7843211087398
46118,CsI4,mp-571011,-0.978285087086207,5.05218115488699
12723,CdCuF4,mp-9075,-2.155964753333333,85.38628080257614
59989,LiCu2Sn,mp-569834,-0.18911480958333327,74.27261472321186
50253,Ba2Hg,mp-8094,-0.38399359166666674,15.73289700403624
141212,Zn(PtO2)3,mp-8207,-1.1067462640000003,193.42679409608343
18145,Zn(GaO2)2,mp-5794,-2.176957137857143,168.53079326838315
108927,Na6CoO4,mp-759174,-1.4472654147100315,53.14165100952
59951,TiCo,mp-823,-0.40051704916666697,163.17202584615768
93078,VFeO4,mp-18949,-2.066527405,89.59757811036303
41929,BeAlRh2,mp-862287,-0.8688942487500002,198.57646435840837
100269,AlInO3,mp-754157,-2.6771471329999996,184.24594073790445
47761,NiSeO4,mp-18817,-1.1890706803906248,69.47407530550316
75764,AsRh,mp-22079,-0.47695861625000013,156.2669921076384
105614,MoN2,mp-1402363,-0.09707402000000087,167.61384244067256
111233,SrSiN2,mp-4549,-1.3568023441666668,95.82558775315678
11693,Na3VO4,mp-755436,-2.2947938312068974,45.37137758395556
137878,Fe2Si,mp-22787,-0.35658953166666646,236.5235961155081
117461,Ca3Cd2,mp-18167,-0.28833979249999986,28.666678772333096
135657,TiGaPt,mp-22662,-0.8137034286111108,162.60270540464126
95810,BaCuO2,mp-997034,-1.9919656037499998,77.41810975151978
138516,YNiSn,mp-22617,-0.6857084055555553,90.50809230825423
71346,LiTl,mp-934,-0.22958965833333345,31.438228097914234
21355,Ni(RhSe2)2,mp-4852,-0.6063128241964283,87.37503142223349
109808,CdCu2O3,mp-754978,-1.0439340958333332,73.39952340519531
6343,MgGeN2,mp-7798,-0.758754960000001,147.03896491370315
28038,SiO2,mp-6945,-3.2642499024999996,12.870244831199006
51258,Si2NiP3,mp-28945,-0.2670704533333321,105.03888245190367
56235,MnFe2Si,mp-5529,-0.3191968019827591,232.86794441409094
44669,GaAgS2,mp-5342,-0.7603199401041669,60.542697539762926
73013,NbCo2,mp-670,-0.1443460900000003,231.2030338881787
26597,ZnCu,mp-987,-0.09071782500000003,114.40115003587282
85614,Ca(AlSi)2,mp-7704,-0.2711350359999997,61.78167769670683
96231,Y6FeSb2,mp-11202,-0.6119180111111109,58.8977552162162
130159,ScAgO2,mp-11022,-2.6267450791666667,123.24835067690324
1197,Ni3O4,mp-656887,-1.0467500692857143,145.68873852068404
84847,Li3PrBi2,mp-1018770,-0.6929537441666666,37.40620536398204
63615,LiVF4,mp-754895,-3.2151286713888894,60.92829268894937
145502,SrIn4Ni,mp-20479,-0.2970275344444448,47.31691947199779