,formula_pretty,material_id,formation_energy_per_atom,k_vrh
50746,ScCo,mp-2212,-0.37063166500000033,120.9964394765226
66929,LaNi5,mp-2317,-0.28169956083333386,135.40892414613225
89862,MgPPt5,mp-15780,-0.5809626961904755,197.56952530305367
21702,Sr3Ag2,mp-30357,-0.267407286,21.131675396043505
96509,Be22W,mp-30444,-0.04122714347826117,133.329197541947
30479,YCuPb,mp-20865,-0.4047946405555554,67.7213488093764
137098,Y2MgAl,mp-865602,-0.299468005833333,54.958089902613885
37829,Al2CoRu,mp-862695,-0.6576831350000001,188.1581945657527
35400,ZrVSi,mp-5541,-0.7322134649999997,155.88267083176498
19998,SiP,mp-8097,0.2310720083333333,53.42368974490928
8855,MgSbPd,mp-10183,-0.6273420399999997,80.6590789792171
3343,Fe5Si3,mp-449,-0.3560548775000001,185.18218974830677
7677,LiCdPd2,mp-867924,-0.44532083333333317,90.44190448609591
36214,NbB2,mp-450,-0.6938497461111103,287.2489812355629
23966,Na2FeO2,mp-754743,-1.524361982620689,57.53277023721404
9419,GaCuPt2,mp-644280,-0.4756986018749991,186.77412871093162
115595,TiB,mp-7857,-0.8320523850000008,207.15786021118296
18535,Fe3PtN,mp-579496,-0.2517392170000008,214.10198981652428
94417,ZrAlNi2,mp-3944,-0.5980511675000004,148.56194832066888
129413,V3Sn,mp-21342,-0.06510671249999955,162.64155344453175
113443,YAlO3,mp-3792,-3.720762192833333,189.79953246873646
76071,Li7VN4,mp-4604,-0.9227858510069448,83.22745285771678
117227,Li2FeP2O7,mp-26025,-2.569700776319444,53.26067772067102
100632,In2O3,mp-22323,-1.9676603030000002,151.00399970028982
32873,ScSiNi,mp-22426,-0.8650207241666656,132.36337569410006
75538,CoB,mp-20857,-0.40207765458333355,302.6398380471182
125180,YCd3,mp-2349,-0.2930405429166667,55.81128468193101
63239,Mn3Al9Si,mp-15819,-0.2703663775994694,117.08972192540432
44952,Tl(FeSe)2,mp-3021,-0.41639578560416624,43.464330674426016
113029,VSnO4,mp-752504,-2.278321618333333,202.0311018376368
75391,Zn7Mo,mp-644500,-0.025340735000000336,102.10679960858505
129937,Pb,mp-22692,0.047538199999999975,37.94287465452459
124408,BaNb2O6,mp-28150,-3.2160994216666663,87.78279527825637
73817,CeS,mp-1096,-2.2972746290624997,86.99224413080756
97189,BaNbO3,mp-3020,-3.178755383,167.45715176643
62408,Ti2InN,mp-1025517,-1.1566976879166662,137.09569481702528
80618,InAgO2,mp-22660,-1.3966343666666665,109.00342680959943
1233,MoI3,mp-864733,-0.2587096637500004,3.414559215226533
1874,Rb2SO4,mp-3372,-2.265194921875,25.376435593891856
19234,FeSn2,mp-22752,0.012176361666665988,79.90027782472002
56464,Zr3Hg,mp-1630,-0.18071051500000035,104.21131943058964
77571,RbTiCl3,mp-28282,-2.0291016151666668,17.239441794370833
106680,BaS,mp-1500,-2.3300412015624996,41.39019080616292
18938,MgW3,mp-978264,0.4971541587500017,151.17636148684016
139202,ZnPt,mp-894,-0.5653964449999997,171.9676020000591
142725,InSb,mp-10149,-0.07110854499999997,49.8700685205565
77561,Mg(AlSi)2,mp-3833,0.021274475999999255,63.99429923251646
51759,Ca3N2,mp-568293,-0.9011241389999995,72.33147675037762
72757,CoAsS,mp-553946,-0.6168651643749996,134.46274708439623
79611,Be2Cu,mp-2031,-0.14037420000000012,136.68569015028243
91534,HfBiO4,mp-756683,-2.719543048333333,129.44578056729864
71865,Ni2Ge,mp-1594,-0.2747626066666662,176.9863760177752
87278,ZnO,mp-2229,-1.6436028375,172.36178674798657
111795,Si3N4,mp-641539,-1.011888492857143,254.92926694188714
21774,NiMoP,mp-7632,-0.558123895555555,241.33077703813976
50304,WO3,mp-18773,-2.1848598118750004,59.106101324109076
129577,CdGeP2,mp-3668,-0.0919403541666659,65.24205151161469
53729,MgAl2Cu,mp-3034,-0.18240740000000022,77.94523551875302
143577,FeGeRu2,mp-865191,-0.1612749962500004,227.23569471642017
29214,Na2Ti9O19,mp-850251,-3.2904893322701145,124.23128569554848
58363,Yb(AlSi)2,mp-10405,-0.28742513999999986,63.5221156985307
109400,RuO2,mp-825,-1.4576657566666664,251.9744425196513
93373,Be12Mo,mp-1475,-0.1278049638461541,140.52279874726594
27395,VGaFe2,mp-21883,-0.2984274568750003,228.30333758003206
109227,Ti2Te2P,mp-12527,-1.0833630140000003,20.673446472045235
125737,Mg3Au,mp-1557,-0.41481424916666665,57.36754693556095
10729,Si3Ru4,mp-510412,-0.519311343928571,232.2833722250578
32838,ZrSb2,mp-979,-0.6786046216666671,81.1050687935462
84770,MgFeO3,mp-754508,-2.0144870909999995,145.7081193925377
100226,Cu2SnHgSe4,mp-16566,-0.507914574921875,52.88514580239178
78899,ZrTe2,mp-1018107,-1.1620816233333346,14.126741524042906
85671,YB2C,mp-9880,-0.5241349431249995,177.1439484923528
139545,Al2O3,mp-985587,-3.2164927756666675,36.71362269413952
24979,LiF,mp-1009009,-2.8784025379166662,69.83157791021878
69967,TiCdF6,mp-623024,-3.283530064791667,9.680692975620165
111161,Rb2NbCl6,mp-570558,-2.0215770605555554,9.584029952976703
117007,Mn2Sn,mp-22514,0.16125265304597627,94.96224384712704
33076,SrLiP,mp-13276,-0.9778120411111111,44.2997181160619
55386,VOF,mp-753200,-2.8100831324999995,163.36303744701146
132807,CdSnAs2,mp-3829,-0.13178138875000034,47.32665628054376
105546,ZnCu2O3,mp-754010,-1.1287596141666671,92.25317950494636
75102,ScFeO3,mp-754342,-2.7649669220000006,173.87540322789212
125915,V2AsC,mp-10046,-0.5337953174999992,203.0771849187655
95200,Si,mp-149,0.0,83.01128367335741
102212,ZrPt,mp-11554,-0.9088991399999999,165.7885133795876
35032,Sn4Bi2Se7,mp-675477,-0.6338696620312502,31.172172446045252
80957,Li2ZrF6,mp-4002,-3.681093611296296,57.87822753772872
98335,Sr(CuGe)2,mp-3241,-0.3668175953333332,71.14116980562113
46783,CdI2,mp-568233,-0.8310418833333335,5.989510294570104
109940,CoPO4,mp-27046,-2.0891926280555566,82.62865585888325
88910,Ti3Pd5,mp-570199,-0.6168922500000003,161.7863933544562
140963,Zr2AlC,mp-3886,-0.6439247312499994,123.88418859013372
129747,Sc2CdIn,mp-862711,-0.37395832499999937,67.37373089148315
109669,CaAlSi,mp-570150,-0.3653890772222223,56.14412279317115
90309,AlPO4,mp-545974,-3.1101355288888883,121.36234584042475
173,FeS2,mp-1522,-0.8481131204166665,149.86115375943734
68286,LaCo5,mp-570460,-0.020400733333333438,130.8828230996904
58179,NbI2O,mp-549720,-1.62187431125,12.712493739267464
16709,FeOF,mp-752975,-2.1102313266666664,128.99422095331283
45226,Mg2Ni3P,mp-8969,-0.48343975055555494,129.77402928862648
98202,LiSnAu,mp-11977,-0.42353084444444455,61.094372399172435
135083,ZnSnO3,mp-13334,-1.9394251929999995,165.43816299654355
114440,Na2CuO2,mp-755974,-1.3317147006206895,66.10280435641852
111230,HfZn2,mp-514,-0.21682526333333327,113.15874977799687
96070,Bi2Pb2Se5,mp-570930,-0.7197885646354167,15.060848018863968
60712,Hf2Ge,mp-9939,-0.650942888333334,132.69871710678433
93006,AlPt2,mp-16526,-0.8536576074999994,204.5369124762616
134974,Co,mp-102,0.016113994999999548,211.5750636985278
25161,SeOF2,mp-27367,-1.774278417460938,7.4979084633503845
66597,ZrI2,mp-571279,-1.1452371016666667,10.964915987396672
95914,V2GeC,mp-9957,-0.4845090287500007,179.53632588425793
52279,Mn4Si7,mp-568121,-0.3876086317476496,192.91001375858394
34379,Ni2Mo3N,mp-4091,-0.317415871666667,273.4835729877831
107986,V6C5,mp-28731,-0.5438920978787868,238.34972358121865
43992,NbNO,mp-752463,-1.914818533333334,177.69735812252935
96737,CdO,mp-13119,-1.3574907124999998,92.85633345114091
46888,Nb3TeCl7,mp-28938,-1.6297385136363642,12.91917894301741
115926,ScSbRu2,mp-862561,-0.6069088987499995,178.15192180049027
104174,Yb(MnAs)2,mp-9592,-0.5031918651724148,61.08764127528755
61945,Sc2NCl2,mp-28480,-2.3010648349999996,25.850810378776487
57596,TiS2,mp-2156,-1.6081458098611112,18.35874922754085
135225,ZrMnO3,mp-754980,-3.053943192586206,141.50104681418765
26625,SrCu2O3,mp-5938,-1.6813612319444442,93.96889272165413
34244,Na2CuAs,mp-15685,-0.3674577082758623,29.799334738515594
126521,Cs3AuO,mp-505212,-0.8736941277586208,7.102085720451866
132674,NiTe2,mp-2578,-0.5051258266666666,48.96723583325327
87135,Sc3InN,mp-31055,-1.191878701999999,103.57724609376325
84745,Na2CuP,mp-7639,-0.3667200366091956,33.79341575365004
68051,C,mp-998866,2.7547879900000005,330.91343595960666
5542,Li2(CoO2)3,mp-758539,-1.439908721969697,31.570134709686613
136101,NaTiS2,mp-752947,-1.590478449033765,53.62633420663167
1054,VTe2,mp-11687,-0.6077918755555558,26.419674744135317
14132,HfZnCu2,mp-866094,-0.1967917425000003,133.3718663093494
28772,SrC2,mp-10497,0.01900950777777884,45.674183800365114
110356,BN,mp-604884,-1.457241514583334,101.90437902256478
69535,ZnNi3C,mp-16290,-0.05983642399999951,189.9625110506788
142032,Ni2Mo,mp-784630,-0.07654438333333265,232.91689521273912
131525,MgSe,mp-10760,-1.4703456911718744,58.82342567626688
52916,ScInAg2,mp-30347,-0.3132434270833331,83.09932640086176
99230,ZrAsRu,mp-8221,-0.8556541744444451,187.04208633718164
6745,MgCl2,mp-570922,-2.1817660866666664,3.769216386551775
26067,NbN,mp-2701,-1.2079780400000004,315.0244495667739
53670,Mg2PtRh,mp-864940,-0.7033575074999998,119.07535656645271
113828,Ga4GeO8,mp-29455,-2.2323623973076914,152.04865276319953
44993,Rh2O3,mp-1716,-1.0714212435000008,232.71283783802312
9503,BaHfN2,mp-10322,-1.5220166712500003,104.29094389859122
39330,MoN,mp-16730,-0.146554652499999,325.6575985449381
37838,Pt,mp-126,0.0,243.72306728191413
94871,ScAl3,mp-2121,-0.4549311287499993,84.29253598324641
63090,AlCrO4,mp-753658,-2.385538456666667,188.5753526350511
77578,MgSnP2,mp-1009083,-0.30968043916666677,56.90153294445066
127830,Bi2Pd,mp-568746,-0.23968416166666687,55.084367594797115
36320,NaNbO3,mp-4419,-2.8178028373103445,132.74305217499892
63983,CrN,mp-2132,-0.6433186237499999,180.7548029914921
93458,C,mp-570002,0.7636557350000004,311.2304268356828
5205,LiVF4,mp-754755,-3.185336401388889,47.909685020846695
21747,MnO,mp-19006,-1.979201203965518,142.77704951117738
30037,Zn(InTe2)2,mp-20832,-0.6166465085714284,23.581497637375186
144532,ZrAs2,mp-27606,-0.8382067308333335,109.99059946662933
43444,LiVF4,mp-754721,-3.1617540538888895,57.535564941896524
42934,CaSn2Rh,mp-11959,-0.6542506824999998,66.07184186319651
58376,LiMnPt2,mp-861658,-0.4802949028160928,113.67623799657854
118620,LiCoO2,mp-22526,-1.7519253445833334,117.60572212900833
2533,NiSnO3,mp-754654,-1.7255442970000003,155.8147772006684
22899,BaHfO3,mp-998552,-3.7867155090000013,159.02154431001915
41685,LiMgN,mp-37906,-0.7582859161111113,98.34940057923299
48520,PtN2,mp-1008809,0.6822390766666663,118.98370273403441
62803,NbSb2,mp-1969,-0.3984885149999992,96.97265161416925
8290,ZrP,mp-930,-1.3311096916666667,134.387469059809
86856,HfSnRu2,mp-866219,-0.6384050487500001,202.26465471212623
105757,SrSc2O4,mp-770771,-3.738229661309524,140.43320082066197
77686,NaCdO2,mp-754567,-1.3072464916379305,71.4858101437308
57447,LiCuS,mp-753605,-0.8853573529861111,25.520432452980955
41214,VCo2Ge,mp-865465,-0.24526192375000022,200.3721785378686
136473,Li8ZrO6,mp-755225,-2.4628493971111114,94.34372366318787
87644,Zr2Au,mp-2348,-0.41615239666666665,119.5371688469775
95669,Nb6Co7,mp-7250,-0.16360463038461476,213.12766939437682
113162,BaCN2,mp-1029375,-0.9756207000000003,47.63927869229008
117671,Sr2NbN3,mp-17701,-1.2229387718055555,71.33173551405088
74786,BaCuO2,mp-755472,-1.8800585724999994,87.9712672478431
100274,TiBe2,mp-2749,-0.19378267611111136,123.62027857457747
66668,N2,mp-12103,5.210484055,0.6495014246545268
73206,V3NiO8,mp-755704,-2.145315913333333,145.04040863791573
39594,LaTe2,mp-571576,-1.6826741637500007,49.38039973531556
114128,ZrN,mp-1352,-1.8601482175000008,246.85201631661445
57895,Ca3(AlSi)2,mp-9577,-0.400620935714286,49.73922939004265
104034,CaSi2,mp-2700,-0.33203623333333354,62.560406146180284
31736,BaZnSn,mp-31148,-0.5257047016666672,34.545771550152864
4127,CaNiGe2,mp-13512,-0.5323925650000003,75.34047874543153
20454,MnInCu2,mp-22673,0.0767931280172407,106.8425211383103
139567,CoGe,mp-21237,-0.21742825875000005,151.9091710187683
75373,CoPO4,mp-689940,-2.089397054722223,16.645554482494866
127347,Rb2Hf2O5,mp-863749,-3.1372247555555566,86.56455487405444
89029,VSnRh2,mp-669918,-0.4137026612500003,188.8910781657856
45455,BaCu,mp-30428,-0.07352391000000003,18.3349718035099
100405,Bi2WO8,mp-35397,-1.4164529981818177,65.65819097885944
95101,CrP2S7,mp-768680,-0.6313761168541667,8.177990175906412
47228,ZrSiS,mp-3938,-1.3450657043749992,124.57925807372476
113278,LiSc2Au,mp-864772,-0.43146675083333275,73.35463018404394
130810,SrCu5,mp-2726,-0.06268331444444424,82.76090981317681
106978,CoO,mp-19128,-1.2839680287500004,129.76035117003673
412,TlBr,mp-22875,-1.1055794604166667,28.07423163323046
19,Sr(CoGe)2,mp-7361,-0.42725011933333334,74.37048787933006
50381,AlVNi,mp-961650,0.3753415399999997,106.5993587502766
31574,Fe2W,mp-20868,-0.023244380000000103,259.4115764374602
108263,NiGePt2,mp-29752,-0.3318706437499994,196.38619760198262
98405,CeBr3,mp-569850,-2.2627455456249996,21.65253642635604
65131,V2O3,mp-18937,-2.5258905190000007,202.17866080313053
87898,Mg(AlC)2,mp-9514,-0.06273040000000023,133.91307120997374
9742,InS,mp-19795,-0.7428954078124996,20.033368954372524
109068,Li3P,mp-736,-0.6965688783333333,39.86351151251053
71339,BP,mp-1479,-0.40748731624999923,160.51811416973587
87081,ZrN,mp-13126,-1.411655542500002,199.9604105546639
114434,LiScAu2,mp-862815,-0.6956562670833328,81.86717587026982
42085,Na(Cu3O4)2,mp-758835,-1.0074803997701147,119.18333176797552
94590,As2Pt,mp-2513,-0.5176526591666661,137.49234112199522
105893,LiVO2,mp-19340,-2.4937810420833335,120.0963082557576
19684,K2SnCl6,mp-23499,-1.8569887167777779,11.858436675557634
36485,YCuSn,mp-13202,-0.6149348222222221,75.8222976130969
101311,BaZnF4,mp-3881,-3.3938069125,56.76199344601196
41910,NbNi2Sn,mp-3504,-0.19618542375000025,178.4103851664781
52880,MnNiSb,mp-600124,-0.2709623626436783,109.19242928220507
56783,ZrTe3,mp-2089,-1.0331436912500003,20.78077573409039
114456,Ba(FeS2)2,mp-27660,-1.1507141889285717,40.617126283363646
97639,Mg2Ge,mp-250,0.2142613450000003,41.52499232672382
111176,MnNiGe,mp-20007,-0.25920189931034443,143.99613390178354
85309,BiPd2Pb,mp-30461,-0.2934874925000006,84.36123240953583
132561,Cu3P,mp-7463,-0.020021717499999998,123.44585599766823
140945,Co3Mo,mp-1139,-0.05267117750000061,260.46568077541764
90094,Mg2Pt,mp-13208,-0.7084344999999997,72.72659559736245
86118,NbN,mp-1018142,-0.8279634925000003,226.83354322898097
120042,NbS2,mp-555293,-1.340971712083333,7.028476570344451
102085,RbNiCl3,mp-23486,-1.5515030134999996,17.710786489504223
104731,BaTiO3,mp-5020,-3.4922378096666664,95.07892731074455
13652,SnF4,mp-2706,-2.7095145449999998,35.69280968257131
27160,Hf3(CuSi)4,mp-10245,-0.4830410363636368,153.48140378308514
28136,TiF3,mp-246,-3.6713244152083337,103.68422319567804
81269,SrCrN2,mp-1029838,-0.9912788779166668,92.24994452412712
30829,TlCuF3,mp-554973,-1.9032640121666664,66.77890595493749
85391,P,mp-1014013,0.04504319416666647,2.4094731127367752
87254,Nb3Sb,mp-2053,-0.3254188824999993,173.94328426590707
17165,Mg2AgAu,mp-864978,-0.44367547416666664,72.68642110557312
62766,HfAg,mp-13156,-0.11511337583333336,117.29622133454671
104636,RbMnN2,mp-1029835,-0.45322251151400916,114.49554157626858
43020,Zn2CuAu,mp-12759,-0.15582695250000045,112.01091713554919
107024,Y2Zn17,mp-17639,-0.24928883754385972,80.72907093389907
64575,ScSe,mp-1782,-1.8248868936718745,80.51432054547186
34128,HfGePt,mp-21340,-0.9025588916666673,176.83316665832268
135281,TiSiRh,mp-672645,-0.9466066219444436,187.06966816021745
124230,AlNi3,mp-2593,-0.4340954649999995,179.50780680262065
87788,Ca(MgAs)2,mp-9564,-0.9421022619999995,49.64534780828416
20647,MnAlCo2,mp-3623,-0.36919633698275867,191.796037740754
135434,B2CN,mp-1008527,-0.4391093683333329,324.4140370129595
38123,KAg2PS4,mp-12532,-0.7275065627708335,37.37251885497946
49604,Cu2SiTe3,mp-675120,-0.28455657833333287,52.06988044794211
98928,Li3SbS4,mp-752426,-1.0378283690625003,38.908012355250584
89844,Sr3MnN3,mp-9325,-0.872376161847291,52.624843583557166
34762,CdSnP2,mp-5213,-0.09526149916666693,56.89749845441392
80121,Zn2P2O7,mp-551741,-2.3996034383333322,116.84449117277083
17804,MgAu,mp-437,-0.6070851799999999,79.49470363802271
118582,AgNO3,mp-552185,-0.6830964443333336,34.92831567315373
109969,Mg2PdPt,mp-864975,-0.8087740025000003,109.67464691167228
60954,LiAlGe,mp-5920,-0.29134166944444395,60.95615486406521
45002,Mn2BiO5,mp-504697,-1.8853860322952594,127.56462276962499
118102,TiAlCo2,mp-5407,-0.6249417558333334,177.6970248490211
26242,Zr2SnC,mp-4613,-0.7835163574999999,127.33914860764668
117767,ScBe5,mp-11277,-0.19542277499999963,108.47117650552394
130707,Li6PS5Br,mp-985591,-1.3066654151121793,28.08891512833005
68569,SrWO4,mp-19163,-2.746216890277777,63.493536048670244
56028,MnAu4,mp-12565,-0.07754984558620706,128.5460805407128
27496,MgCd2,mp-972954,-0.0452762283333333,43.07799738002548
46741,PbS,mp-1018115,-0.7460190515624996,26.350585747059903
4820,Sb2Te,mp-6997,-0.20410326555555575,32.33671181219822
35251,MgGaNi2,mp-865092,-0.33597937437500036,123.84750755378985
115895,Fe3SnC,mp-21850,0.06882885100000066,139.99001752603505
14303,V3Si,mp-571211,0.6728398875000012,132.28438097201285
49355,CuS,mp-555599,-0.44523708822916674,73.89629279192587
33297,Li2CuSn,mp-30591,-0.3297365304166666,51.71140100458932
18796,Pb3O4,mp-22633,-1.4469811542857138,39.69130963299836
93495,Be2Fe,mp-2225,-0.2775914083333338,158.35765857548859
56058,Y2(Al3Co)3,mp-11486,-0.5647616438095235,109.82973490418951
144939,Ga3Fe,mp-636368,-0.23825033374999993,102.28136056557646
43014,NaZnAs,mp-13097,-0.42500744718390787,38.851340104040986
3149,CaMgGe,mp-15641,-0.5683345599999997,46.82941177923297
4305,V2P,mp-20541,-0.7870825419444442,207.41311100438324
130650,Y2B3C2,mp-29896,-0.5043695815476192,149.41168853329856
42066,NaVN2,mp-1029711,-0.8231559810129312,45.004298961865494
93241,Cs2FeO4,mp-17443,-1.4427154208374386,20.45666609567202
60034,Ca2CuO3,mp-5869,-2.5281315691666664,113.44179913678246
94766,Li3ScN2,mp-542435,-1.0504224652083327,92.73920701803857
88760,KCuSe,mp-7435,-0.837525958447916,34.11182221724377
61738,Cd(InTe2)2,mp-21374,-0.6168214585714286,21.113365549284286
114164,CePb3,mp-20225,-0.3540138962499997,49.5096551607926
48196,GaCuO2,mp-4280,-1.6750011693749993,151.2609694086285
16130,Li2Mg,mp-976982,-0.026059495555555756,21.02533084301532
44171,Li2CO3,mp-3054,-2.2484518902777775,54.82072851038362
107049,CaTiO3,mp-754701,-3.5277344686666665,135.25003244671123
60705,MnCoGe,mp-20565,-0.1908570193103453,161.54352456824245
51903,SnO,mp-545820,-1.6288757437499992,33.81093916054746
138690,TiTeAs,mp-11113,-0.8317303677777789,83.1947659786837
55505,ZrCrFe,mp-631429,0.7330638433333334,89.24222886501838
33972,Al2CdTe4,mp-7909,-0.7055929385714285,25.621532085297773
8563,Fe2OF3,mp-752456,-2.284674314583333,114.72840496829699
94201,GaCu3,mp-865798,-0.0930038993750002,126.84605298222392
128905,MgAg3,mp-30351,-0.1616133500000001,73.63986624519141
58907,SiPt,mp-696,-0.6286731200000002,174.18499928654518
17779,GeSe,mp-10759,-0.4432921486718744,58.19171299430622
113895,Cu2SnS3,mp-10519,-0.5784565823958339,65.90881236717956
23054,Rb2WCl6,mp-30227,-1.7850154183333333,9.622750497414614
88636,Li2Se,mp-2286,-1.417794186336805,33.694562766142845
111820,NiAsS,mp-3830,-0.4947283352083325,109.013702011532
44840,ZnNiSb,mp-11621,-0.2955355966666667,102.085350458394
99529,VS,mp-33031,-1.1300706590625005,164.07708258557088
142727,Al2FeNi,mp-867330,-0.49921187999999983,167.53401355797462
140426,ZnGeAs2,mp-4008,-0.16511559750000027,60.613658790630026
30380,ScGaNi2,mp-11400,-0.5701341281249999,129.7142965588709
116418,Al7CoCu2,mp-17856,-0.27829899850000006,109.98492107106063
134812,Hf5Sn4,mp-510691,-0.3980996722222222,111.70078484827388
16183,NaZnP,mp-4824,-0.40595686662835223,44.10297066026469
41607,SrLiN,mp-29754,-0.6169230583333333,53.697524204047895
88362,CoPtO2,mp-19210,-1.041663713750001,178.58552812355046
130907,MgNb2(PbO3)3,mp-673624,-2.4408108683333345,76.73143059146395
12182,Zr6Al2Ni,mp-13092,-0.3465577900000009,104.82659602785047
80851,Bi2PdO4,mp-29259,-1.408942188214286,51.62077359262955
102352,Cu(BiO2)2,mp-505042,-1.4514456882142857,57.75503578814473
80839,CeO2,mp-1018664,-3.8091486233333334,131.98286791435382
136362,Ba(ZnAs)2,mp-570198,-0.641302914,48.396077207037465
135254,CaCO3,mp-556235,-2.686459425,75.24708531010545
123048,WO3,mp-545665,-2.1799410479166674,169.83501000364348
25550,CrFe3,mp-1018067,0.06366455500000079,184.28945325621498
138269,Al2O3,mp-2254,-3.4096639672499998,201.48766554071562