,formula_pretty,material_id,formation_energy_per_atom,k_vrh
7511,SrNiGe2,mp-13513,-0.5195490504166669,70.35260774479892
26823,VPt3,mp-372,-0.43467109500000056,241.37914214469814
62325,MgGeO3,mp-3759,-2.539973932999999,164.17704736260987
83799,TiS2,mp-9027,-1.587913804027778,47.058802389430994
27262,PdF3,mp-13679,-1.5772139131249996,32.6669372537948
143245,NbSe2,mp-10228,-1.1247414048958326,24.599358717628707
30849,Sr3Al3N5,mp-1029733,-1.2421417877272736,103.80811501677566
71400,YSi2,mp-12769,-0.5005530138888888,84.83718822945468
31956,LiCo3O4,mp-755398,-1.408294987291666,141.93592484904786
138195,Fe3Ge,mp-20344,-0.09958344625000048,177.49133599541028
25563,Li2CuS2,mp-752881,-0.9931388745833338,40.690123931006795
104219,In2HgTe4,mp-19765,-0.5361674007142854,19.820715454484017
27292,CrS2,mp-755263,-0.8698202420833342,29.469539091780604
134145,BaMgF4,mp-14568,-3.992940358333333,57.359031466952544
57539,Sr,mp-95,0.013056413333333294,11.543946882984923
64052,Li,mp-10173,0.0025241966666667004,13.832380783517458
107898,CrP4,mp-7302,-0.28152649566666665,124.27715450844846
91425,ZrGa3,mp-30685,-0.48116222062500036,97.10074582931807
54875,Li13Sn5,mp-30769,-0.39301188268518555,29.62876889913461
86257,BN,mp-984,-1.4613800295833332,102.71724225684306
35227,Zr2SN2,mp-11583,-1.889581994625,159.26746273093204
59394,SrNbO3,mp-7006,-3.1753473623333326,173.14219969671336
15120,Al2O3,mp-755175,-3.3545392195,189.05109640051614
145826,TiCl3,mp-571143,-2.0714121008333333,5.479963790493468
74239,Nb3Si,mp-17848,-0.42094953406250113,184.1635251907084
49639,AlPO4,mp-3955,-3.1115932366666663,29.442597773399097
76315,SiO2,mp-557873,-3.207309701666666,36.29554177220702
132234,HfPt,mp-11455,-0.9758084349999994,184.79182296083252
12551,Al2ZnSe4,mp-7907,-1.1007739499107143,38.08905018375239
46586,FeOF,mp-758560,-2.1116773225000003,132.6913260050968
6988,AlSiTe3,mp-31220,-0.5212049669999999,15.225175548952532
56364,AlRu,mp-542569,-0.6734773924999997,202.21080770459332
99799,Li3AlN2,mp-13944,-0.9676316629166669,104.49318548645411
45841,Ti3Al,mp-999027,-0.1604740549999999,110.21720181032083
137962,Al2HgS4,mp-7906,-1.1077082624999994,37.88873799739008
121115,BaPt,mp-31498,-0.7490768524999996,49.53731917740079
45772,FePd,mp-2831,-0.06369684000000042,162.422104643385
2567,CrNi2,mp-784631,-0.01845198333333305,228.29387308110694
126765,LiVF4,mp-759459,-3.1966882588888894,59.79530839183681
50589,TiBeRh2,mp-866143,-0.7918117820833332,203.6458885196691
33267,Ca3Hg2,mp-11288,-0.471531903,30.379281718983087
132099,LiScPt2,mp-865228,-0.9624167845833336,113.99667572449704
22828,VSi2,mp-11190,-0.43672019333333306,174.571680946786
76063,Al2Cu,mp-12794,-0.02356822666666621,90.1242459126345
49245,CuAs2,mp-21859,0.0846026266666667,87.06885609818877
82129,Li2TiO3,mp-2931,-2.9819544033333343,110.20712409151463
53127,ZrAl5Ni2,mp-30183,-0.5905424937500001,120.37516948710102
139814,Li6WN4,mp-3503,-0.9147499963636366,84.67706931532871
82692,Fe7W6,mp-1473,-0.0161382561538473,270.4782304061107
112088,Eu(MgBi)2,mp-1006146,-0.5484344590000007,33.41846715366012
135719,Fe3Ge,mp-21078,-0.09537692000000053,168.6254170663929
24379,InSb,mp-20012,-0.20905340000000017,35.393211857850076
49574,ZnS,mp-13456,-1.0507095995625,69.5064245818852
53688,K(NiS)2,mp-558518,-0.8011487098500005,29.509550173633333
10130,ScSnRh2,mp-862623,-0.8764835499999997,154.43045154757738
37525,Al2O3,mp-759943,-3.3914156911249997,196.90183749888666
114366,ZnSiAs2,mp-3595,-0.19679864374999934,65.88488083367864
38602,K3B17,mp-684709,0.09214177625833316,96.16482663388943
13836,Ce2Y2O7,mp-36699,-3.907941576666666,144.12097901738008
11816,LuCl3,mp-865324,-2.6577483174999994,4.982378147167474
106385,HoF3,mp-561877,-4.465273261875,65.46805309053008
27930,MgCu4Sn,mp-3676,-0.1262149741666665,100.27380717773744
81055,SnMo3,mp-30788,0.05191669625000017,216.8115181437388
3459,YCuO2,mp-6972,-2.722433049166666,114.75757446749012
107324,CsMgF3,mp-8401,-3.426002267086207,63.6287573484095
90633,TiSiRu,mp-11560,-0.8563297016666682,202.24880149725368
108134,MoCl3,mp-22853,-1.2892357637499998,12.366148757845245
145893,VPbO3,mp-20032,-2.1146165890000015,54.40584726755233
14894,BaSb2Pd,mp-9768,-0.9061895562500002,54.66715005851731
27749,LiCuO2,mp-9158,-1.4505814108333328,80.90753913181061
32357,Na2VO3,mp-759863,-2.241147226350575,91.54530911673557
41142,SrAgO2,mp-997100,-1.8187307745833334,79.9778248886559
70175,Cs2PtF6,mp-8191,-2.45156311454023,19.693578230431772
35130,YMgAg2,mp-866162,-0.31703167,62.971646513205144
12309,Rb2CoF6,mp-560878,-2.486047620555555,16.47533844101023
90576,K2CoF4,mp-556447,-2.6317489687142848,47.15396528809712
60656,K,mp-10157,0.012324776999999898,3.7922383385315763
144592,In5Se5Br,mp-510346,-0.7895245067471589,27.212965329630347
100906,SF6,mp-8560,-2.1053871268750006,5.932228692571952
71208,Li3Au,mp-11247,-0.41127635000000007,42.2634298400043
17510,Ti3SnC2,mp-21023,-0.7820459450000001,158.2633942936131
109481,Ti2N,mp-7790,-1.423146505555555,179.00824693943008
24387,Si3W,mp-972748,0.45380836,144.8843292958456
100067,Pd4Se,mp-7818,-0.2547171774687499,139.0272964098143
30196,TiFeSb,mp-10755,-0.4316054411111108,113.55241956246512
43452,Sc3In,mp-19713,-0.2954346799999996,63.46112829954046
44102,LiSc2Pt,mp-865444,-0.7343595883333336,90.82495351212012
64153,ZnF2,mp-7709,-2.5972805958333334,95.89498493732737
33136,CeC2,mp-2839,-0.16063979166666562,100.96830181299222
50472,MnSnAu,mp-22027,-0.045422914310344474,80.03160487441728
57405,PbWO4,mp-641365,-1.9930109341666669,80.56109091745043
116876,ZrO2,mp-755089,-3.7911989341666654,151.56291110597152
30403,SiPd3,mp-20622,-0.6067529137499994,160.83211706916381
2610,HfMnRh2,mp-865091,-0.6572043794827582,177.35619183307932
31440,BaCO3,mp-675324,-2.607796669999999,50.1403566091211
130813,TiAlAu2,mp-16482,-0.44090986083333394,140.79900567083507
58736,Al4C3,mp-1591,-0.09208207428571415,160.15449184393844
69037,CuSn,mp-10598,-0.02331130750000021,76.51661286065092
51972,Sr2CrN3,mp-1029923,-1.071752565555555,89.56329026908082
22371,NbGaO4,mp-7601,-2.7242927654166658,163.3410025745644
8394,LiNiF3,mp-758501,-2.6478378621666665,80.84568737251566
128243,MnV3,mp-864984,-0.14656493948275795,209.2846283861357
67202,BaCu3O4,mp-3988,-1.4566490450000007,74.94814566450631
36234,BeVRu2,mp-867874,-0.35140093624999924,237.96238624149265
43317,SbPt,mp-2845,-0.5115465774999999,124.48825313014973
125390,B2S3,mp-866066,-0.6305787145416666,20.154156632509128
89771,GaNi2,mp-570904,-0.32691929416666693,164.2362387769763
102886,EuTe,mp-542583,-1.8918302324999994,33.341982454129194
120880,AlCu3,mp-1008555,-0.18149385250000005,128.68420612824087
134291,Ca(InN)2,mp-1029479,-0.4332581620000006,90.41755025486376
17635,Ag2HgI4,mp-23485,-0.5161846926190476,10.777214449713192
18589,In2Si2O7,mp-19784,-2.5586320727272724,227.60111288107373
7250,Ti3AlC2,mp-3747,-0.7626407166666667,158.52143845478707
94054,Sn2Pd,mp-1573,-0.38873621291666716,80.65010824837412
91004,K2PtCl6,mp-23513,-1.611611978444444,12.49076121334599
7793,SnRh2,mp-636334,-0.36264119999999994,177.00524894747272
84432,ZrMo3,mp-30790,0.2276425075000006,195.76497531230294
58087,InP,mp-966800,-0.2015046466666659,57.73010286667274
112785,Te2Mo,mp-602,-0.5554445900000005,15.8616402061677
145976,LaAlO3,mp-2920,-3.7221933660000004,181.0832673100188
54480,MgO,mp-1009127,-2.3049662474999995,142.64467252824772
132801,YNi2,mp-1019,-0.4173657172222214,120.98909197897169
61863,ScF3,mp-559092,-4.296475640624999,90.78289029103847
138043,Y(Al2Fe)4,mp-4656,-0.43256386051282025,123.09729795098181
102261,FeAsS,mp-561511,-0.6176492827083339,142.73661089946245
123115,BiIO,mp-22987,-1.3349335450000002,16.95283322025558
45494,Hf6CoBi2,mp-31383,-0.2502774005555561,112.43580646393515
1738,CdTe,mp-12779,-0.6633544924999999,35.006810593214816
91347,WSCl4,mp-27475,-1.2925472138541665,1.0227612674357522
17381,CuHgO2,mp-772856,-0.7370161637499999,44.254156175558414
10242,ZnAu3,mp-1755,-0.14774798374999998,124.62277221795208
24334,CaAl2O4,mp-559390,-3.446380854285714,75.57080529423895
94094,NaCuSe,mp-7433,-0.7490963979651575,41.42068770530692
38192,Ba5Al5Sn,mp-570677,-0.34690825409090886,29.75759406670388
61222,CaMoO4,mp-19330,-2.6396284475000016,75.1868546614784
17963,LiPdAu2,mp-861930,-0.34097107833333284,100.32395741483148
123496,ScGe,mp-9970,-0.8277953274999996,89.25757955726276
74259,NaP,mp-7440,-0.3805429961925286,27.825471751863
67691,TiInNi2,mp-22463,-0.33785971083333344,152.43789006935737
115839,Sc(BC)2,mp-27693,-0.45910870116666586,189.8532521168988
132517,LiZnP,mp-10182,-0.5528442322222222,65.31398304021779
136252,Li8SiO6,mp-28549,-2.435039454777778,81.21516688751149
137655,YAgTe2,mp-12903,-1.1391337708333342,41.38296841291407
35212,Co,mp-669382,0.11766239086956577,198.99217888732798
28062,CeGa2,mp-2209,-0.5906536066666662,63.59099848628654
73813,NaMnPO4,mp-17967,-2.564532608616586,83.8573903734434
25711,Na3CoO3,mp-31126,-1.5743992056650242,51.256367574241544
88570,SrZn2,mp-13365,-0.18946751388888927,35.3102798056415
55446,MnCO3,mp-690525,-1.932404827586207,79.64977911611341
124973,SiO2,mp-554089,-3.2645922200000004,20.094481262365584
65385,NiSe,mp-15651,-0.5232205611718749,103.80438427417322
97711,Cs2O,mp-7988,-1.1884128869540227,5.248282024512445
23148,CaMg(CO3)2,mp-6459,-2.572642166,89.40632000383019
58829,LiCl,mp-22905,-2.1164494266666667,31.93906902785352
103507,ScInNi2,mp-21301,-0.44457331624999963,118.23404300018915
34563,YbFeO3,mp-19793,-2.4191156835000003,155.09730369018777
123976,NiGe,mp-1099,-0.30497307375000027,135.7993007703318
91944,Na(VS2)2,mp-676586,-1.2596433184359606,42.571898819461026
146215,La4PdO7,mp-31031,-3.360691400416666,113.5497616065984
128802,Na2VO3,mp-850201,-2.2630531359339088,46.33833507241954
8596,ZrNiSb,mp-20697,-0.7011985916666662,134.59455053061527
132684,TiCuSn,mp-19983,-0.2218600794444446,102.81306790035676
21844,AlAgTe2,mp-14092,-0.5710726966666662,42.36020434817861
24740,Si3N4,mp-568867,-0.5927055546428578,189.71130380734468
1047,ZrAlCu2,mp-3736,-0.3529459199999998,128.44028657833826
130035,FeOF,mp-675006,-2.0947903525,88.66521366954123
126262,CsTlF3,mp-998234,-2.4520765917528733,43.924100378198155
31439,GaAs,mp-603640,-0.004404876249999745,67.2476927492171
10736,Be2PdPt,mp-864961,-0.6840844974999998,192.36683251461534
66194,YMg2Sc,mp-979435,-0.06911031791666655,45.97613521409521
25115,ZrCoBi,mp-31451,-0.42098131499999997,116.81632279697368
34038,CrGaCo2,mp-567981,-0.11942477937499962,198.4717932717546
145454,K2CO3,mp-3963,-2.1173924255833327,25.405131055029173
65605,CdSb,mp-1321,-0.13341415624999975,38.99693658969399
76900,ZrGeTe,mp-3208,-0.9235142916666668,58.045519222047794
81294,SnPd3,mp-718,-0.5168573062499995,145.7479028173276
91179,Ti3Ga,mp-998988,-0.19212561687499985,108.33890338898547
76566,K2AlF5,mp-9486,-3.5160900510625,26.1785632838225
37471,BeRh,mp-11276,-0.6078159225000004,206.5838196640816
112879,CuBr,mp-22913,-0.5176189337499997,42.86462696435218
80378,Ca(NiP)2,mp-4064,-0.8513654033333331,114.25240861061977
24990,ZnCuPd2,mp-864661,-0.4042525499999998,145.99732649421324
20261,LiBF4,mp-12403,-3.2542144465277776,10.82763033741911
107531,CaPt2,mp-842,-0.9320685116666668,132.03474455943717
86882,HgI2,mp-23173,-0.5458711250000001,2.7334523759293012
30181,CuI,mp-22863,-0.33041384250000005,8.417151505760136
54299,MnP4,mp-769096,-0.3083166739195415,118.7923706805459
79367,ScSnRu2,mp-867748,-0.5073834325000002,170.90201396362727
71766,CuN3,mp-27954,0.2937954575000008,10.03433098226614
137228,Cu2WS4,mp-8976,-0.7462458846428573,13.221564092527096
126989,Li2SbPt,mp-3158,-0.6773404491666666,81.33136983629504
104419,FePd3,mp-21845,-0.10825452499999955,174.35856577527915
79108,Ca3N2,mp-844,-0.9333944734999996,67.88798587554348
26280,MoF3,mp-554201,-2.750936369375,91.95261210465989
47554,VCo2Si,mp-20586,-0.421280542499999,213.11440620183285
18827,Nb3B4,mp-10255,-0.7657891780952377,273.94422184787777
138635,SrHfO3,mp-3378,-3.812951887333334,156.73357760055012
4510,MgCd3,mp-30491,-0.06979741624999991,44.77422694414487
59854,GaCo2Ni,mp-20551,-0.12846311937499966,180.37594211075464
100301,YCdPd2,mp-865520,-0.729499534166667,97.85623464078841
102209,Mg2Cu,mp-2481,-0.11874911666666677,56.06828353001535
111663,LiAl2Pt,mp-30819,-0.8270093983333333,126.87552990906659
43480,Ca3AsN,mp-4192,-1.165877991,59.661034877957
17924,VBrO,mp-27841,-1.9885180891666667,31.914269428327103
92901,ZnN,mp-999485,0.4368627174999995,132.46113794503816
122180,LiB3O5,mp-3660,-2.8108321075925935,82.32164172001494
27256,Al2CuO4,mp-27719,-2.653946341428571,185.44562842165755
38507,Fe2Mo3O8,mp-504974,-1.679525405384616,140.80852567231943
102113,Tm2O3,mp-556253,-4.041544182999999,156.2791663082666
84248,TbMnO3,mp-22055,-3.031316431086207,154.36035077443563
131624,LiAlO2,mp-34993,-3.008295078333333,153.57435382496448
96642,FeO,mp-756436,-1.3658974825000003,139.7911870285058
54271,Zn3P2,mp-2071,-0.18831408583333342,65.08038116667817
73449,CoAs,mp-583,-0.3003154150000009,157.13846016122704
60725,ZrSb,mp-569671,-0.8084696787500008,103.70855025932161
12017,SrSnO3,mp-2879,-2.637945564833333,137.602706627805
69075,LiIn(IO3)4,mp-973966,-1.1481154912962965,29.06112718822852
11100,Ag,mp-124,0.0036091633333334983,87.87140622076788
73084,NbP,mp-9339,-0.9815329116666671,188.32973218263282
122451,Li3Co,mp-977165,0.3279079337499997,14.412321569705265
73110,Fe3N,mp-673635,-0.15523950031250067,199.61060690209075
111138,Al5Mo,mp-568607,-0.2425787691666669,120.58909749187251
137880,NiPt,mp-945,-0.09406082499999968,213.2272725467451
689,SnAu5,mp-30418,-0.046658759166666286,114.39066784912879
19081,Sr3Ti2O7,mp-3349,-3.493003658472222,140.22588081169278
64250,Ti2CS,mp-3732,-1.3781354611979157,179.80310239672366
69377,TiZnCu2,mp-865930,-0.16664676833333303,128.54364028234113
39385,CaGa,mp-6914,-0.4759455987500001,35.4714295616981
134844,MoCl3O,mp-23528,-1.4063862715000006,2.7643927967231354
90056,CsPbBr3,mp-567629,-1.635622540586207,17.639260824237013
55269,O2,mp-610917,0.012108549999999774,2.2349755443708816
26230,TiMn2O6,mp-775831,-2.2861204965772677,42.38616275777543
2375,Ni,mp-1008728,0.09555978000000032,189.44599292096242
100082,Ti7Al2O15,mp-15397,-3.394625321180557,196.94443369991188
62733,CsAgSe4,mp-18105,-0.7166613610787831,8.61365307431313
116136,MgAu3,mp-570017,-0.3849615303749999,111.01102973585967
33762,EuCl2,mp-22887,-2.7644953633333347,25.901676182489137
130939,KMgCl3,mp-27865,-2.2607339500999997,31.25306226637401
133590,Cu2GeS3,mp-15252,-0.5714839032291673,71.83178620750289
42865,TiGaRh2,mp-866157,-0.8438889402083332,194.04336899664705
25466,TiNbS4,mp-34289,-1.4594601259722222,19.41879671454041
75580,BeFe2Si,mp-862669,-0.37921702375000077,223.15535637072225
20485,Mn4Al(CuO4)3,mp-1045744,-1.534255570086208,130.13798269249526
97315,NbTeI3,mp-540924,-0.7703027800000001,5.889965244712743
21627,Mn3CuO8,mp-756513,-1.4535339478160918,84.9754077980231
117462,VCuO3,mp-504580,-1.7961252550000004,138.22823783602306
2619,LiSn2N3,mp-1029294,-0.1977146755555547,84.4754960578004
82996,CaPdF4,mp-8161,-2.8363586683333337,73.8353935332926
41188,ScCdAg2,mp-867127,-0.24546225708333314,79.44928496234168
121585,Sr2Fe2O5,mp-542018,-2.3719361381481483,114.68300203081634
119017,SrZn,mp-12724,-0.20881719458333325,24.18770955471393
72465,TiSiNi,mp-510409,-0.8213968661111105,176.5400902521381
62466,Be2Cr,mp-30438,-0.22044840916666666,182.7718219026507
92542,Sr3(AlSi)2,mp-7068,-0.37984326857142897,43.106479141906064
128665,GaTe,mp-542812,-0.5716701754166665,9.875481232317005
143007,TiFeSi2,mp-21662,-0.6451737456250003,180.26820572457984
22261,Be2CoPt,mp-867270,-0.5918615562500005,206.711434302658
130557,TiCo2Ge,mp-4612,-0.5124312795833337,179.0775286709514
74730,GaSe,mp-1572,-0.8271763449218748,13.88831612215331
65450,Nb2CoO6,mp-504552,-2.6712789252777784,142.8668840982429
89039,Sr2ZnN2,mp-9306,-0.7085313586666672,65.92948352560555
36528,Bi2Te3,mp-34202,-0.48730979799999974,15.009397526599269
54905,YCo,mp-865373,-0.19720050333333372,54.21171779390727
139305,ScAu,mp-11256,-0.8081003674999998,102.78719246563435
97410,CuBr,mp-22917,-0.5148605662499999,6.195817981327959
25702,ZrTiF6,mp-16548,-3.705917392291666,84.78928002839581
26413,SiC2,mp-1019097,0.42582455000000036,160.92046116525916
59209,ErI3,mp-866003,-1.6274201150000005,2.8269618289359855
49680,Zn3N2,mp-754553,-0.021981282500000532,132.0483318406326
44979,AlI3,mp-30930,-0.955214190625,0.7455874692825335
139267,NbBr2O,mp-550070,-1.9748484149999994,10.803405445900529
19550,CaCuSb,mp-5910,-0.7318202966666666,52.4246189980439
120954,MnSbPt,mp-5676,-0.4281849759770111,110.48096648441111
114901,ZrAl3,mp-569775,-0.4643413574999995,100.28727869222419
141822,SnAu,mp-1775,-0.1842897524999998,71.91902795720907
118622,LiGaTe2,mp-5048,-0.8397132902083331,26.89867909880681
144057,MoC,mp-2746,0.21304057000000043,334.9131837706203
113941,CoCO3,mp-21434,-1.6714624369999995,115.87450193833865
62044,HfCo,mp-2027,-0.3985034425000009,152.86373803249614
111118,Yb,mp-162,0.002814910000000115,15.397697073556749
138073,CrGeTe3,mp-541449,-0.41950860000000034,13.581401178523246
92607,VP2,mp-9923,-0.6113376155555557,152.16419229572517
107013,Rb2CoF4,mp-559959,-2.605216795714285,40.29270105465723
65737,Mn2NbAl,mp-865011,-0.25654126146551803,190.4323786333032
60560,Yb(ZnP)2,mp-9582,-0.745239819333333,70.63361600965908
133948,SrY2O4,mp-17275,-3.711378947500001,112.36910423567394
95212,TiNiO3,mp-18732,-2.596717666666666,177.49277549056612
114316,YbTe,mp-1779,-1.8765704300000001,39.6874877546731
56078,RbAlF4,mp-5479,-3.6378372362499998,55.926142184862314
142869,VB,mp-9973,-0.8471857795833335,272.63524244438105
77857,CaZn2,mp-13364,-0.27431139249999986,47.75387722133245
61584,NaCl,mp-22862,-2.109608383275862,22.590490142223533
38452,LiMg2Ga,mp-30648,-0.17574785520833336,41.56055788860917
94247,BaNiSn3,mp-11879,-0.47533043500000005,55.54815518979201
90534,Li2ZrN2,mp-3216,-1.260916647333334,132.16890178438655
130384,MgCuSb,mp-3522,-0.3356988333333331,67.61028836472525
27933,V3Co,mp-1585,-0.19621856000000015,210.63075077347185
137574,CoPdO2,mp-18919,-0.81176092875,152.8736309856052
50256,FeSe,mp-20311,-0.5079131286718743,19.322664914620614
143262,LiVN2,mp-1029932,-1.0134646627083335,80.34737049234454
111665,PrRhO3,mp-4789,-2.474184888000001,177.39710328273642
62885,Al2ZnTe4,mp-7908,-0.7049408199999999,29.342436798370656
48260,Nb3SBr7,mp-29057,-1.3851965496022733,12.518355995943226
145797,Ba(CdP)2,mp-8279,-0.5809104713333337,50.75805310796456
12855,FeSn,mp-21260,-0.0027313125000011005,99.92065049757687
19904,Rb(CoSe)2,mp-570091,-0.6563672104375001,38.33927619044954
102132,YAl,mp-11229,-0.41490384833333316,64.87707147795922
67002,Sc2TlAg,mp-862366,-0.3029024825000004,71.80435831986983
10604,LiMgSnPt,mp-11806,-0.6660068770833334,88.20701610429569
15400,LiAl5O8,mp-530399,-3.353554159523809,196.22117291099443
88047,Li2FeF6,mp-777463,-2.610322456851852,37.05943092838498
47083,Fe2O3,mp-565814,-1.63579756125,177.94099172993583
22233,Ca2GaCu2,mp-30472,-0.2975049955000003,49.848729863260495
78382,Na,mp-127,0.012337643448275815,7.512214997807318
7561,BaBiO3,mp-559051,-2.2334278330000004,106.35290447961678
24944,RbScO2,mp-8145,-2.9980326181249994,95.08371663450043
136916,LiNi3O4,mp-755956,-1.3458402179166669,150.32406878373018
64380,CrAgSe2,mp-3532,-0.5973268378385415,63.916946689863636
27305,Te2W,mp-22693,-0.38720455999999953,19.89178457601911
91757,V(CO3)2,mp-757524,-1.9286790944444445,20.408173395525317
140272,Co3O4,mp-18748,-1.290614975,159.96511411759624
36251,Mg41Al67,mp-568106,0.06865674675925906,55.179580175894976
105340,Mg2C3,mp-28793,0.17125586600000062,90.95617007431085
49496,TeBr2,mp-863764,-0.5415430166666665,4.1086156714566755
22647,AgAuO3,mp-776165,-0.35892026933333343,125.87963855825825
115062,Nb3Al,mp-796,-0.17377538000000037,161.13895912529136
61022,MoO2,mp-25349,-1.6038335266666681,46.23356373257804
339,NaTiS2,mp-7942,-1.5975605915337647,51.96100645868047
26358,Mg(ScGa)2,mp-13570,-0.5084744669999999,69.9044674701615
106226,PbCN2,mp-619032,-0.060794106874999976,25.58127778664581
67135,Ag3Pt,mp-12065,0.012626642499999896,120.19137885547482