,formula_pretty,material_id,formation_energy_per_atom,k_vrh
136570,MgSiO3,mp-5924,-3.1200038500000007,190.89259498004546
112324,Ca(MnP)2,mp-6953,-0.6838432165057469,86.59424819060544
118814,MnPt3,mp-1180,-0.35382260698275836,217.2037946428863
27252,CrWN2,mp-15226,-0.46636371499999996,262.27641756464755
22998,Y(MnSn)6,mp-22260,-0.14204934263483765,110.12983474656828
62789,MnAu2,mp-11252,-0.11065940264367906,123.70114550136263
102955,MnS,mp-1783,-0.7233406855280169,56.061149168839606
88376,Ti2ZnN,mp-1014227,-1.153330106666667,149.32649797582064
55319,Eu,mp-21462,0.045591330000000596,12.874751997787282
94985,BaLiP,mp-10615,-0.876838105555556,37.7683415455498
109156,FeAs,mp-427,-0.20321564500000022,162.8392442742508
95237,Te2Pt,mp-399,-0.6783594966666661,49.42985011779332
67584,FeSi2,mp-20738,-0.33699646666666777,182.64252273066631
129424,CoSi,mp-7577,-0.5803951925000002,210.50673450976052
12911,ZrC,mp-2795,-0.8049799150000005,221.25196351284131
57346,FeCO3,mp-18969,-1.7901851929999992,111.23118848405788
114214,TePb,mp-685022,-0.5589509762499998,36.85027899349206
42922,BaO,mp-1342,-2.8236447624999994,68.35650846399855
13301,ScInPt,mp-31297,-0.905873285,109.36347568181256
64747,Ba(Si3N4)2,mp-567771,-1.3144629106666674,152.25577656340087
133552,WCl4O,mp-27754,-1.4034832975,4.714975706467334
128685,LiGaPt2,mp-867170,-0.7147969577083337,153.37847027938054
100200,Na4CoO3,mp-18762,-1.4771385314008625,46.21178322916478
72744,SmCl3,mp-863026,-2.6602695662499993,4.193177396247743
18934,BiF5,mp-27743,-2.129343782083333,14.560240013082913
93444,Li4TiS4,mp-861182,-1.54464264212963,25.13918442415308
33013,NiCO3,mp-19147,-1.6550596940000006,124.80521841688406
59050,LiFeF4,mp-777595,-2.766866041388889,48.7501029836253
3715,BMo,mp-1890,-0.5020885320833344,311.47458547498445
68898,Sc3CoC4,mp-5075,-0.4491226412499998,179.67487013724238
38958,NbGeRu2,mp-864669,-0.2679408087499997,225.50148733955416
66701,SrMgSn,mp-30780,-0.5629632363888888,35.90390109130038
144850,Li2Ti3O6,mp-760539,-3.084737700606061,107.08134397341806
108081,BMo,mp-999198,-0.4917879395833342,309.3788640992351
88737,SiPd,mp-389,-0.5033976037500008,148.94735003946704
63328,B6O,mp-1346,-0.805272605,226.99744434715177
44147,Al2O3,mp-1143,-3.4265510080000006,231.87698875170878
124782,Ca(SiAu)2,mp-7364,-0.4776691079999999,92.93028652602791
14044,Ag2BiO3,mp-23558,-0.9207718288888884,99.60153327386506
135007,ZnTe,mp-8884,-0.6789137575000002,43.41430006652458
42254,ScCdRh2,mp-867909,-0.6093279687499997,138.52254833694644
47966,TiSnRu2,mp-865888,-0.5834220770833332,202.29382850096022
3101,TiAlPd2,mp-865441,-0.7610236508333328,165.87556300738316
77553,CaCdAu,mp-569628,-0.6209750991666668,52.865257192741204
75920,YCu5,mp-2797,-0.19024762111111096,108.8562144772637
145958,Co2B,mp-493,-0.24435592805555592,246.73248962080868
68184,AlTlO2,mp-14105,-2.431644979583333,99.58074095594594
23319,TiMn2Ga,mp-865780,-0.23709498417385078,160.06394501891538
53548,Y(CuSi)2,mp-3390,-0.5690537293333335,117.07074927671704
4663,Ba(ZnP)2,mp-7426,-0.6483642113333332,55.39597771019815
26735,K2NiF4,mp-556546,-2.7425846208571434,46.78901388030562
115996,Rb2SnO3,mp-753798,-1.9232125550000003,42.69552562420015
17156,Sc(CoSi)2,mp-4131,-0.7616632949999996,158.50276867334168
139741,Na3PS4,mp-28782,-1.1277847594360635,23.791352301439787
14902,ScP,mp-2807,-1.4908768941666661,97.57368203083072
98540,ScGa2,mp-11413,-0.5441247983333332,73.94637522409315
7708,Ba(ZnSn)2,mp-13920,-0.4158695980000001,43.57922766269641
78081,WS2,mp-9813,-1.1539716920833338,27.357656891917703
140918,Cr,mp-8633,0.4025263400000014,240.90805461423207
25103,ScPRu,mp-16305,-1.190010424444444,174.6090750047108
142255,Ca3Al2(SiO4)3,mp-6008,-3.445632545875,154.20723958991124
59766,Cu2PbO2,mp-29396,-0.9810454259999993,50.65322031501292
146087,In3Ni2,mp-21385,-0.1506924419999997,92.0031875154699
25233,N2,mp-25,0.0,1.3098836864070464
58866,ScFe2,mp-540,-0.27387501499999917,127.91368216724123
51346,NiI2,mp-27638,-0.37948815333333324,13.614822549788121
28968,InNi3,mp-22784,-0.04172421749999966,150.15885019505146
394,CaSiPt,mp-4478,-0.9523060841666661,84.15239691641756
71567,Ca2Fe2O5,mp-1370756,-2.3575941472222235,96.48273063888425
145987,K3PO4,mp-557753,-2.5404552027916667,36.9146943792437
106614,Rb2HfF6,mp-13947,-3.754169493333333,21.892361678505907
108656,Fe4O5F3,mp-763353,-1.8450950260416665,123.79068508363738
19662,SrHfN2,mp-9383,-1.5583670016666664,156.360305599168
70506,LiMg2Zn,mp-864762,-0.13744063583333332,40.330931555298925
139836,Nb3TeI7,mp-567713,-0.8207750304545459,12.280688325999234
128767,Ca3(AlGe)2,mp-10670,-0.5119482128571425,46.68804016204467
22902,Mg2TiO4,mp-757031,-3.2816905522619053,146.712274130583
111565,NbVO4,mp-753679,-2.8191465741666675,179.1570959771289
5581,Na2PtO2,mp-22313,-1.3711057166206893,70.16517557038841
76425,Li2FeF4,mp-755718,-2.829387723809524,27.441814250001677
136016,Sn3Ru2,mp-680677,-0.17857728150000013,127.08035933304097
58083,Nb2O5,mp-10426,-2.692223025000001,60.50357462918073
13805,RbPdF3,mp-9060,-2.1213191089999994,70.396074115686
78381,PbS,mp-21276,-0.7845242265624996,51.9569838813854
39080,BiI3,mp-22849,-0.7663869175000002,3.0915161913067357
24800,LiZrO2,mp-755253,-2.951050153333334,155.0743570499343
78642,TiCo2Si,mp-3657,-0.6593298858333343,201.33400725392073
104842,BaPPt,mp-21236,-1.0802504202777772,79.63118131162469
22856,Hg2AsF6,mp-540925,-2.025906078055556,15.531416381562483
145956,BeCo,mp-2773,-0.3058752800000004,195.11014362762063
63382,TiO,mp-2664,-2.6349294041666678,224.22078368804273
143521,ScBi,mp-570632,-0.6574208275000002,57.566686932300115
108343,TiBe12,mp-11280,-0.0621322194871801,121.77143415902688
140943,GaPO4,mp-553932,-2.585854107638889,20.054868834831147
28354,CsBr,mp-571222,-2.0528959977155172,6.47613845551012
119741,Ca,mp-45,0.0,17.005169073224042
126298,LiVF4,mp-755547,-3.1455119788888894,46.00193997448738
139301,K2Cu(ClF)2,mp-1023132,-2.136414135857143,18.65961428829179
35476,Nb3Au,mp-2752,-0.06562293500000038,183.76359903779746
91747,ZnCu2Ni,mp-30593,-0.12242532750000024,142.72784980638215
144347,NaI,mp-23268,-1.459640155775862,15.755163711631875
30394,LiGa2Pt,mp-20363,-0.6226674795833329,98.27915112039435
143228,Sn3Pd,mp-1371,-0.29265065375,64.1378893846865
131033,Al5Mo,mp-571053,-0.2383154291666673,118.53135344294964
3843,ZrSe3,mp-1683,-1.4020921567578117,16.329043594187524
93842,HfBe2,mp-2553,-0.17074517666666722,128.48527462583058
133535,YCuTe2,mp-945184,-1.1100723979166673,42.49628146557761
22863,GaFe3,mp-19870,-0.13532719187500053,174.30544049669743
87090,Y(AlGe)2,mp-10521,-0.418217383333333,71.32991253395403
74160,BePd2,mp-13452,-0.506112018333333,166.35518801347973
66025,C,mp-66,0.1364125350000016,435.6869405997526
86659,LaCo5,mp-1731,-0.017366981666666465,133.17972126654922
101801,TiRh,mp-2583,-0.7413721266666666,189.53405935664387
113150,Rb(CoS)2,mp-560663,-0.8140856027500007,49.556546235310826
138519,Fe3Si,mp-2199,-0.3040792425000003,211.87791723694903
67911,Sc2FeSi2,mp-3618,-0.7465828129999992,119.75692779349566
137791,Ca2ZnRh,mp-867854,-0.2888083299999997,48.815699780338804
51169,NbAs2,mp-7598,-0.5261645299999991,124.47219562216947
2273,CaPd2,mp-833,-0.6941216633333328,94.2575985017367
142414,Cs3BAs2,mp-573658,-0.3478052629932951,12.586844855025255
59579,MoO2,mp-715482,-1.7656188166666678,75.32634703389027
72935,NaSbO3,mp-22212,-1.968776009310345,128.84791496761494
6367,C,mp-616440,0.14115684875000056,435.65080732589
90168,SrFeO2,mp-21145,-2.2923045941666667,100.59358139874624
96827,Sn4Au,mp-1393,-0.07477007600000007,51.20638741013562
33825,Ca(MgBi)2,mp-29208,-0.5287092359999999,34.559616802150074
127058,Nb2CS2,mp-5745,-1.0494413792499997,34.72183134238708
38172,NaVO2,mp-753393,-2.2788729691379306,118.3329852797078
107212,YMgAl,mp-13090,-0.3319419711111106,57.44004770750274
108154,Bi2Pd,mp-570197,-0.2134791266666672,55.0681093199167
91887,K2NiO2,mp-19252,-1.3091295112000005,29.235653093946866
39225,FeN,mp-6988,-0.31464321750000046,266.9981173031348
73054,Al3Fe2Si3,mp-29066,-0.3213418190624999,143.54966007004867
103121,LiNi2Sn,mp-13915,-0.27391635208333387,108.33860832267322
27095,LiI,mp-22899,-1.3857797941666667,20.63477016256236
52514,Nb3O7F,mp-753459,-3.055334592499999,213.5427069227158
38881,Ba(NiP2)2,mp-571420,-0.6554143761904763,97.7292675284815
72671,NaCu2O3,mp-754631,-1.1435313602586206,71.080106500299
47779,TiZn(BiO3)2,mp-557950,-2.197995938333334,83.2797401495857
94294,ZrAs,mp-1682,-1.1422787262500007,117.97373227385913
142832,MnZnO3,mp-754318,-1.8136498225862083,159.94033233858593
71213,SrF2,mp-981,-4.232558450555556,65.02474192575455
104566,V3NiS6,mp-676058,-1.0964174088750007,70.11363360320539
85243,ScVO3,mp-756546,-3.202248177500001,180.74397229520565
124187,SnI2,mp-27194,-0.7447498127777779,9.77491593555214
47630,Zn2Ni3O5,mp-759178,-1.3719560575000003,176.68707656253835
113163,ZrBrN,mp-570157,-1.8887928608333329,15.43005580971848
83366,BaGe3Pt,mp-22346,-0.632413065,75.08821342542947
144248,Si,mp-971661,0.08163676652173928,79.16510870708592
15336,Mn2AlCo,mp-13079,-0.278881467715518,158.80232067917103
135671,Ti2FeSe4,mp-5090,-1.1621229594345235,58.55160895458161
6671,Nb2Se,mp-27793,-0.6698707199479171,122.36218968176692
132105,MnFeAs,mp-4238,-0.1988801876436794,158.60114013233772
76826,YMgTl,mp-11984,-0.35048175111111135,53.908343665731785
93551,ZrMnP,mp-20147,-1.0369406870881217,174.6230462508086
126955,Mg23Al30,mp-17659,-0.023268360566037954,55.72523135556089
139456,WO3,mp-1396391,-2.181652613125001,36.98314389701795
41923,ZnNi2Ge,mp-16358,-0.2368817662499998,148.48498912558094
108352,Li7Sn3,mp-30768,-0.39368295233333334,30.532298973006945
146075,Pr2S3,mp-15179,-2.355719752875001,72.72686842496415
55739,V3Pt,mp-2211,-0.42717150250000024,217.71004408985823
132645,AgBiS2,mp-29678,-0.47334871072916673,61.407521687381184
45625,O2,mp-12957,0.0,5.678240993557882
68213,Mg2Sn,mp-2343,-0.18713612833333335,40.76445340211364
12065,HoBr3,mp-977375,-2.2405649143750006,3.800644465466747
42952,FeP2,mp-20027,-0.5367611155555553,179.9904153317486
40307,CO2,mp-20066,-1.7701240000000003,4.842149358770975
66897,LiTi2N3,mp-1029424,-1.5286589508333333,125.74220732320126
73810,Sr(CoAs)2,mp-571203,-0.614873599333334,71.27508987560967
3553,Y(PdO2)2,mp-15053,-1.982918236666666,154.3315043407995
129578,As2Se3,mp-909,-0.3966222139062495,7.607704739989741
46212,Sr(CdAs)2,mp-7771,-0.6248035473333335,46.19098658853656
31823,Ti2CuSb3,mp-505804,-0.3949323577777785,91.87807045211984
139271,Ti2O,mp-1215,-2.0355361072222222,183.78502832083817
64909,EuSi2,mp-19862,-0.44842850833333375,61.3686570240918
16140,Ca3Fe2O7,mp-1324016,-2.4104254045833327,125.37686919826155
41702,InAs,mp-20305,-0.22866252750000005,49.15915091766797
58699,Ga2CoO4,mp-765466,-2.026136891071429,169.2359459912401
77567,Na3CuO2,mp-779545,-1.3201194282758622,42.959090115252465
98655,NiB,mp-14019,-0.24213156458333263,259.3292596210629
26908,HfMnSi,mp-20192,-0.6658372109770099,162.30966945047066
74831,Co3Se4,mp-11800,-0.5408628320535708,94.90787667114546
14917,ZrZn2,mp-1401,-0.3025525683333334,102.13351695050306
81974,TlCdRh2,mp-866188,-0.03904961083333358,138.24133483031449
44885,Zr2CS,mp-5025,-1.4631769157812498,165.00914931322674
4938,LiTiTe2,mp-10189,-1.0378445691666665,37.99908857576559
67185,BaMgV4O8,mp-1044203,-2.5295085149999994,102.53807481691129
54222,PbBr2,mp-28077,-1.2662063583333334,1.7917657217408147
101112,Hf2InC,mp-22156,-0.7095990200000006,129.53814944142667
18593,Ti2CdC,mp-9961,-0.5368769529166668,111.78850235309417
102999,Li3Sb,mp-7955,-0.6769047100000001,27.761901331599724
97097,CuNi2Sb,mp-30069,-0.13936845999999914,148.6892360273752
74574,Ca2CoN2,mp-1400520,-0.7855157419999997,70.46219437828213
5037,MgCuO2,mp-997031,-1.95542530125,133.5767157984588
80154,ZnSnN2,mp-1029469,-0.1402182462500008,132.97970936849134
112337,Hf2SeN2,mp-1029330,-1.9007174164687513,159.1310374982674
126960,Rb2MnO4,mp-505209,-1.7215459004187192,23.525201676778973
40254,TeO3,mp-2552,-1.3215608325000003,90.39781824872625
133385,BaI2,mp-23260,-2.0507060824999996,15.319848773709724
64226,SrAlSi,mp-3698,-0.37533015555555593,52.28777882433376
39489,GdF3,mp-972965,-4.112800554375,137.53276259514098
117955,YMoO3,mp-1445377,-2.698696288333332,152.0542344335223
119647,TiO,mp-755300,-2.795379665833334,207.01369616599294
132596,Ca2CdSb2,mp-569267,-0.8620967455000003,29.785490607200217
79230,Mn3PtN,mp-7070,-0.38122425375862007,172.53588519257954
135079,Ti5Sb3,mp-22033,-0.5631139933333333,110.91053154351957
20414,Ti3AlC,mp-3271,-0.5924399459999989,152.90942717807798
130704,Y3InC,mp-19817,-0.5324160460000001,76.56783560255542
108375,TiF2,mp-282,-3.0149259494444443,109.2136835973442
94637,VBr2O,mp-27713,-1.6076525450000005,21.677532509633018
50107,Li3NbO4,mp-36086,-2.6498756837499995,108.36131253526483
17150,BRh,mp-567164,-0.3779623545833326,275.1430428470019
144775,Hf3ZnN,mp-1014252,-0.9629369550000006,149.91366837529262
68577,LiFePO4,mp-19017,-2.4802079830952377,90.8627654557033
84613,HfGeS,mp-7918,-1.219819349375,127.36093733853221
37941,Ca(AlGa)2,mp-9690,-0.3474662529999996,57.698975639969646
78908,La4Ni3O8,mp-557939,-2.6766914513333337,130.54415167596443
81967,CsCu3S2,mp-7786,-0.7089222156968399,15.239864504648114
30098,Bi2O3,mp-23262,-1.6417272150000002,54.48642573645523
106967,AlF3,mp-8039,-3.8697116268749996,126.48033801154331
129249,YMnSi,mp-21249,-0.5635409348658994,88.96536415296976
43237,YMoO3,mp-1371109,-2.7471031393333343,121.71170026467131
119178,Rb2PtF6,mp-8192,-2.441966811111111,21.605629724038913
86218,RhO2,mp-725,-1.2189547283333322,233.62425553539512
75535,Cs2Pt3Se4,mp-14338,-0.9164591950263407,16.855424043266662
143843,TiFe2Ge,mp-866375,-0.4796471020833337,214.5881294353697
131984,SmS,mp-1879,-2.0429176440625003,16.25850412631625
85692,NiRhF6,mp-20580,-1.9953986018750003,36.53861191904373
78628,SiO2,mp-572283,-3.1075871624999993,89.54350341044707
46522,TiMnO3,mp-19082,-2.9546040562528737,159.11672777076893
16260,PtN,mp-13174,0.9566425074999998,192.06097501475233
109150,Sb2S2O,mp-28711,-0.9502169307500005,12.882819368725347
121906,Sc2Ti2O7,mp-753802,-3.727578647424242,137.41996577949863
85750,Cd(PtO2)3,mp-8212,-1.0797970040000002,191.9235966844704
101499,MnCoSi,mp-19809,-0.4315616659770119,160.55327842341887
108488,V3Si,mp-2567,-0.44520859374999944,195.77976589811175
126848,FeOF,mp-759543,-2.10991439,93.527131694849
128244,Ca2CoN2,mp-1029532,-0.7786037489999998,87.75611265746332
17245,Sc2GaAg,mp-862339,-0.4703854710416664,80.08938138158933
29900,KNO2,mp-34857,-1.2927115244999996,16.963953221864767
135306,CoP2O7,mp-27044,-2.0612770766666664,74.48361317884445
115473,VO2,mp-715553,-2.408770690000002,97.49968353478948
62273,TlSe,mp-1836,-0.5111776640885415,21.689986366301632
92746,MnCoO3,mp-20641,-1.654938670586207,169.82962907994414
30500,K3BAs2,mp-9665,-0.34308927969444386,16.032940316089082
125979,YCBr,mp-643367,-1.2585473713888884,22.186913809476266
126151,PbS,mp-20526,-0.7260659290625,6.633485649885848
52175,FeCl2,mp-23229,-1.1257440966666667,11.305756034964022
75454,MoRh,mp-12595,-0.18898505750000005,266.3002545271557
128643,AgClO4,mp-22993,-0.4157985444444445,27.028000896192907
47289,Ba3(AlGe)2,mp-10669,-0.4682189971428577,33.26892458452586
35547,TiOF2,mp-37473,-3.5393881045833337,134.28666561275512
38458,Li12Si7,mp-1314,-0.2219493805921053,36.088772449527916
125015,VPO4,mp-18835,-2.701056512222223,105.95497214961742
144456,Li3Mg,mp-976256,-0.027404234999999888,19.58009911448695
144956,K2S,mp-1022,-1.2226776997083337,19.385871660457987
82955,CuPt,mp-644311,-0.15657242999999976,197.00201143987297
132305,TiOF,mp-753059,-3.3983178686111124,36.862296121553015
117340,WN2,mp-999549,-0.5083264933333341,352.9301026111016
111536,CrSi2,mp-11191,-0.3119656488888896,195.42858702588416
62660,Cs3Sb2I9,mp-541014,-1.147193343485222,8.39585070515834
70346,PrBS3,mp-862754,-1.5542872857083339,52.975759898834
37054,CaSi2,mp-12892,-0.2535912533333337,52.65019696786267
63306,Sc5Sn3,mp-17695,-0.6836719218749989,72.0125358340849
61059,Li14P2(N2O)3,mp-1020011,-1.3150217899333336,86.91291959492946
136504,Hf3Te2,mp-28919,-0.7659245460000008,27.420470213018564
72441,ScGaPd2,mp-30661,-0.8731770431249997,130.65695160352772
75682,Ni3C,mp-7586,0.0584423575000006,194.69274963801348
39964,Cs2PtCl6,mp-23406,-1.6625519217624516,8.262151451125868
120253,Li(CoO2)2,mp-552024,-1.482078210476191,89.2278485734951
25061,Ti3ZnN,mp-1014257,-0.9715119909999999,146.09176068307374
106442,InNi3,mp-22469,-0.06369582624999914,147.04715142637593
74286,Sc,mp-36,0.047873135000000566,51.29593443213839
38763,Li3Al,mp-975868,-0.07968219500000018,26.370377805596895
40819,InAgO2,mp-20329,-1.3965652904166665,109.1422928725309
138613,Cu3N,mp-1933,0.19230306874999936,115.70790603003442
96687,MgCoO3,mp-761524,-1.8374216190000006,145.8040608455874
116698,TlPd3O4,mp-5478,-0.9443212710416669,140.67341562645385
13823,CoSnO3,mp-761574,-1.749030689,152.33588654518985
64427,NdGaO3,mp-3196,-3.0537203045000005,162.31726558925027
20529,Sc(Al2Fe)4,mp-3701,-0.42552828961538364,126.4292235537742
34616,TiO2,mp-754672,-3.469557906111111,68.30527220559935
137739,Hg3Au,mp-973626,0.11669332375000008,40.1830577995556
117115,InNi,mp-20997,-0.08252876500000017,125.65339166158316
5143,KZnF3,mp-5878,-2.8179999301,68.78847994046161
102885,SrInPt,mp-22284,-0.7652059997222219,62.28932687606853
20674,Cs2HgO2,mp-7232,-1.2912457101724137,19.581620420002288
102917,Sr4TiN4,mp-1029799,-1.1014515272222225,73.01435996471457
12454,CaSn,mp-2450,-0.644165025,38.03292248042363
24448,NdNiO2,mp-31063,-2.2842844925000003,145.88497799157705
88104,BaTiO3,mp-995191,-1.685623257666667,23.098401143180034
62565,RbMgF3,mp-8402,-3.507344585,65.28140972735656
128320,SnPS3,mp-4252,-0.6435424735416675,16.280672319763568
115138,MgGaPd2,mp-865123,-0.7180220018749996,131.55163801283152
36446,Ba(PdO2)2,mp-759541,-1.5184776164285714,87.79694028761305
64183,NbSe2,mp-643063,-1.1387790257291666,22.684767083710724
137982,Li4SiO4,mp-11737,-2.6748834581481478,79.51283380976764
63309,CrSi,mp-7576,-0.25362728624999953,187.00405212101566
19427,BaBrCl,mp-28049,-2.740771776666667,14.824422409368726
134842,Sr(MnSb)2,mp-2968,-0.2772477565057471,33.70147561519208
83376,Sr(MnP)2,mp-5589,-0.6284219638390809,78.00248845986958
57290,MnCoO4,mp-761556,-1.3759542121551729,172.6126761382536
105618,LiV2O4,mp-754922,-2.4266582404761903,70.27153029927118
71164,Fe3Sn,mp-22461,0.08453976374999961,118.85855081985454
111222,SrPt2,mp-1349,-0.8524458972222213,118.0271256761601
137401,Y4Al2O9,mp-5409,-3.8050151882777783,132.29015065928394
5006,VZnRu2,mp-865486,-0.21965784,227.5346772200004
71060,GeSe,mp-700,-0.4516834374218748,21.1166705441022
142258,LiAl2Pd,mp-30817,-0.6404172683333336,104.17637306872942
52838,Yb(ZnAs)2,mp-10314,-0.69123151,59.71314570771056
81447,CaZnSi,mp-16266,-0.42775888666666617,54.7335574637965
135955,ScInO3,mp-768358,-2.909252085,152.4227590136289
102599,Sr2GaSbO6,mp-6304,-2.6303210460833326,144.2737634896813
103641,TiNi,mp-571,-0.3473606516666665,160.08341294317194
133442,Sr4Cu2O7,mp-766217,-2.3420248997435893,95.33844732992453
9590,Zr2SN2,mp-553875,-1.8767761306250008,156.74474244666172
129306,Ca3N2,mp-1047,-0.919754648,71.57450583703314
119774,YMgHg2,mp-866164,-0.4647696341666667,62.31277963913139
34853,Fe2CuGe2,mp-21141,-0.07975051399999984,128.90763282167018
62707,Tl2Au4S3,mp-29898,-0.411098320115741,18.024570764636202
47023,MgF2,mp-560236,-3.721774798333333,50.47093940478453
119616,CaGePt,mp-31153,-0.9070047433333333,89.86052253328207
125263,Na4PtO4,mp-760492,-1.4226410262452107,54.926548075757594
59853,AlFeO3,mp-21216,-2.5228678975000007,178.17583165640406
1388,LaScO3,mp-31116,-3.9505633779999996,154.0800306426645
89246,TiO,mp-755264,-2.8103615241666677,236.7469369216385
47922,VGaNi2,mp-30658,-0.28503470187500035,185.69131437304532
120189,LaSi,mp-7083,-0.7153189050000002,66.48015090791623
12129,Li3GaN2,mp-3887,-0.651991903125,98.95017954916241
9293,Ge,mp-12093,0.33402950500000017,65.49728144464473
110834,Ti2PbC,mp-20661,-0.5685984179166672,118.25301936263273
91904,SmScO3,mp-31118,-3.9212644595,161.77093943096315