,formula_pretty,material_id,formation_energy_per_atom,k_vrh
11324,CaAl2SiO6,mp-1019584,-3.4282551435000004,126.52464954914683
86032,Hf2Ni2Sn,mp-646507,-0.5656001960000012,141.76283723750646
80394,LiAlAg2,mp-11947,-0.2531974216666666,68.57645845662965
14580,MgO,mp-549706,-2.9792640699999993,112.03983448423081
11007,Rb2PdC2,mp-10918,0.036901325000000186,31.25196764711832
70657,Ca(CdSb)2,mp-7430,-0.5325872279999999,38.87139303753477
66390,ZrCu5,mp-30603,-0.11645303166666683,136.71422989326672
7930,V(CrC)2,mp-4253,-0.17988100699999876,291.1023930473126
58785,LiClO4,mp-30301,-1.0080158651388895,26.993741212200657
84018,PtPb4,mp-21296,-0.12681435599999985,44.67643541487185
11086,MgNi2Sn,mp-30774,-0.27605854875,114.49005725365335
117141,Mg(GaO2)2,mp-4590,-2.5302858171428566,162.4151195717358
21174,InCuO2,mp-20930,-1.4845387325,120.7963217629985
74527,LaAs,mp-708,-1.5636853300000002,65.110782954607
110381,Y2CuO4,mp-754364,-3.0545982604761903,145.07851107226443
119790,Ba4Cu3PbO9,mp-1023127,-1.9942107908823539,93.49894815641409
137384,CdPt,mp-1194,-0.3062444949999996,136.7971013683658
23831,Cs2Mn3S4,mp-2884,-1.0204545885727976,23.91473664175701
9535,CuNiSb2,mp-11834,-0.24156862999999973,91.92090152472667
34460,NbSiRh,mp-10470,-0.840848990833333,221.40069908563788
52249,MgPSe3,mp-30943,-0.8881159560729166,11.626627972141979
141964,BiTePt,mp-29638,-0.47711152916666677,86.29996342991703
120891,La2Co3,mp-569054,-0.09097588300000012,75.0188322378129
122292,KSb(PS3)2,mp-556609,-0.7778746828416665,10.940294656131925
89636,Ti2Ni,mp-1808,-0.2773286063888894,141.41887456817207
18439,TiSe2,mp-2194,-1.4263449626736115,16.12634278121823
89969,YC2,mp-313,-0.18900418222222135,112.50205135923673
127907,HfGeSe,mp-7917,-1.090811237447917,111.8432058374939
30175,LiCoS2,mp-753946,-1.0087503436458345,74.43254230954051
128952,Fe5C2,mp-2794,0.05864979571428514,233.33559341816823
137381,VP,mp-1114,-0.8149034391666667,170.69558393780892
44388,NiAgSe2,mp-1018020,-0.3634370453385416,71.60922170282905
100687,ZrCdCu2,mp-11293,-0.1477695324999999,114.93102495039884
101354,WN,mp-569228,0.15440444249999885,354.33945787524306
9039,ZrS,mp-1925,-1.5942602765625002,131.04645164146552
45046,LiMn2O4,mp-757975,-2.018593539170772,96.82050038232079
27002,Li2MgMn3O8,mp-581301,-2.21841566110427,115.92815820568259
91516,Sn,mp-117,0.0,38.48975875447928
66600,SmS,mp-1269,-2.2743243890625005,90.53671548546956
143961,Zn(SbO2)2,mp-5388,-1.7498168192857138,44.284962107712396
4693,Ba2ZnF6,mp-7739,-3.623769103888889,57.41498083724238
92023,BaGePt,mp-22151,-0.8979624116666667,64.95091487845119
75876,Cr5O12,mp-13869,-1.807032697352941,58.922364259329385
4144,AlPd2,mp-2824,-0.8311608641666665,158.02704232664018
124593,Si5Pt12,mp-567618,-0.5790514732352935,204.9704854734291
87296,NiMoP2,mp-10208,-0.5754818516666669,189.32270113267455
105735,Mn2AlB2,mp-7892,-0.4699861168390811,217.78500229954847
98793,Ge,mp-32,0.0,58.97784212555779
53250,Y2RuRh,mp-866173,-0.5845749895833325,108.44206389996873
141113,FeCuO2,mp-505110,-1.316044345,143.7426496319739
142594,FeSe2,mp-760,-0.6697212132291662,117.61282761532246
73786,Mn2NiO4,mp-622693,-1.728142116551725,160.83331719106047
104274,Li2GaPd,mp-3201,-0.5510639185416664,66.81462244470896
27233,SiC,mp-568619,-0.20346579599999898,213.20373204060783
70656,La,mp-26,0.0,24.88388842079427
56333,AgCl,mp-22922,-0.7338783983333332,42.627551690755126
108341,AlPt3,mp-188,-0.6806201999999999,225.2304609427992
38439,Ba(BiPd)2,mp-571599,-0.6424738150000003,59.94266739775007
12692,Zn2Mo3O8,mp-19216,-1.862555258846154,129.8364097904652
3944,LaRu2,mp-2019,-0.13194248833333214,143.3971499503688
61626,Li2CdSn,mp-12580,-0.32264944291666664,36.73894386257699
127763,Mn3AlC,mp-4593,-0.1919325907586213,215.33420376645438
60058,Al3Pd5,mp-16523,-0.8516220056249999,155.61656016473574
98636,Co3Pt,mp-865193,-0.0946174399999995,212.02219355286294
2456,Ba(NO2)2,mp-27897,-1.476955540714286,29.00191121795237
64002,MgO,mp-775808,-2.967507278333333,115.35081513084225
83026,Sn4Pt,mp-20662,-0.2810124909999999,59.223692480340816
143616,Ti2C,mp-10721,-0.643809233055555,138.9378923332192
40634,Mn2Sb,mp-20664,-0.037662943620689525,86.39035789391761
130645,TiFe2Si,mp-866141,-0.6748644958333347,228.8516232936496
70958,LiFe2O3,mp-756381,-1.6963743413888892,127.8595769726263
38386,SiF4,mp-1818,-3.474476041999999,4.934290234073002
3686,MgCuBi,mp-30449,-0.10897807666666637,57.02316984731408
67880,CuBr2,mp-23219,-0.6638177249999998,6.739356819824583
36719,TePd,mp-564,-0.5763426250000006,98.21033867374038
90687,CuWO4,mp-22773,-1.7008668033333336,86.76218809749577
69724,MgTiRh2,mp-864919,-0.7717169633333336,163.0139223891337
125960,ZnGeN2,mp-2979,-0.3733232431250002,163.10902267844142
129356,Hf4N3,mp-32994,-1.6624212221428576,224.95202284029224
51588,K3AgSn3Se8,mp-571594,-0.9169989779611114,14.900180293072989
69359,SrZn5,mp-638,-0.21532471777777795,52.98076365450311
141802,C,mp-568806,0.010051490000000385,114.95600056963441
42387,LiAlSiO4,mp-6326,-3.209992046071428,113.40036035971184
111711,CsCoCl3,mp-504708,-1.5571491215862068,15.082263459141362
81201,Mg(BeN)2,mp-11917,-1.1925267340000005,184.95001115605623
7826,ScSi,mp-9969,-0.8011338575,101.32680667643848
90699,LiRhO2,mp-14115,-1.560123683333333,121.2644924165472
133032,AlN,mp-661,-1.5843970050000005,194.40551931147388
77759,LiNiO2,mp-866271,-1.489747370833334,116.04467937364208
12196,KBaPO4,mp-6812,-3.043846705190476,53.611890857381184
5120,In,mp-85,0.03681058000000004,33.154748421362385
33438,NbPt3,mp-12700,-0.6445364881249995,249.90291797213314
26686,Nb2C,mp-2318,-0.44846452333333414,219.28374205106303
20660,ScFeGe,mp-9549,-0.5547345277777782,101.4933036445462
7771,Sc3SnB,mp-10139,-0.6085225358333333,82.69104550902483
43041,ScGeAu,mp-9350,-0.7224387733333332,100.06127676727462
60487,Cu3SbSe4,mp-9814,-0.41711439242187476,58.4167475108584
46235,EuFeO3,mp-504703,-2.4259913980000007,156.4935765442488
139848,NaCu3O4,mp-756095,-1.0886326608189654,47.222572311593545
35691,CaIn2Cu,mp-19968,-0.30681315625000005,48.40241998342766
20126,TiCoSi,mp-21306,-0.7894698094444443,180.7882866232959
46213,NbAlNi2,mp-4813,-0.43092735250000036,180.5786108123681
77369,Nd,mp-4,0.13995944000000016,33.152405771364855
114726,GeO2,mp-7812,-2.076483917499999,23.388865184673833
66705,SrPbF6,mp-504677,-2.7995722033333337,56.950955556806235
130088,Bi,mp-23152,0.0,29.495896266307415
35752,HfNi2Sn,mp-4828,-0.49088848625000026,151.66576395032286
5276,Bi,mp-567597,0.049545179999999966,46.56051909826344
45599,MgCl2,mp-23210,-2.2654612233333338,9.63235902661371
142318,Mn4Al11,mp-2856,-0.27699086678161017,125.41173209669867
62007,CaLaMn2O6,mp-21507,-2.771157318836207,153.27969993640016
146241,AlSbO4,mp-676861,-2.5433669,197.65835927764158
31302,PbO,mp-19921,-1.46797853,11.107555109890708
57042,InCuSe2,mp-22811,-0.6686129199218751,52.91569383201835
110849,LiBe,mp-1001825,0.16695820083333324,32.29254183340111
16765,Li3(CuO2)2,mp-25317,-1.5650319644444437,69.89508929615332
4455,TiNiGe,mp-16356,-0.6761965602777771,157.38629328397334
139430,BaLiAs,mp-10616,-0.9467169327777777,34.030231448089026
59207,Li3CrS4,mp-753982,-1.1725387603125004,12.129436534433417
123452,ScRh3C,mp-10712,-0.4951886369999997,214.96776736378143
7179,BaO,mp-1008500,-2.797879155,66.6531105314593
7477,LiFeF4,mp-755146,-2.731539334722223,62.46272969042809
108985,SrVO3,mp-18717,-2.8794546823333342,186.20830262313487
23691,MgCO3,mp-546079,-2.070847423999999,86.9345253627296
52157,CaSbAu,mp-16245,-0.8648060216666664,53.3045687145441
134875,CO2,mp-644607,-1.7591410033333332,4.380799754497961
91580,Eu(CdP)2,mp-22609,-0.5953988343333328,55.17988431671144
102780,BeBr2,mp-30139,-1.399303275,1.016006016422907
116142,Rb,mp-867126,0.024408722499999886,2.754316500715898
6848,NdFe5,mp-11382,0.039659048333332926,107.83114053247317
77887,BiI,mp-568388,-0.4839245299999999,3.757976596435418
118282,InI,mp-23202,-0.6561656649999996,11.942575543683015
59612,TiB,mp-10143,0.7207276087499999,101.4990193799273
112450,Sc2Co3Si,mp-27319,-0.5999702424999995,154.85202947256153
2684,TiRu,mp-592,-0.7631157591666664,212.02556484399537
32672,GaSe,mp-1943,-0.8270154786718749,13.496172957990737
5501,NaNbSe2,mp-7939,-1.2385208865598054,60.67396562024276
83902,GaSb,mp-1156,-0.2527740787499999,44.65379386094293
1966,Y2C3,mp-1695,-0.256649187666666,119.62176980183867
89455,V3Pd,mp-1664,-0.13274766625000112,196.94984676092926
88622,VAu2,mp-30423,0.01198314666666711,126.8553508470226
11292,Y(SiRu)2,mp-568673,-0.8880547473333337,150.51324188230728
128520,ZrNi,mp-556,-0.4557337100000005,138.49221614083243
13532,Te2Pd,mp-782,-0.6155769733333329,52.66822448428749
58850,Li3SbS4,mp-850275,-1.0288408678125003,10.752607384166826
130508,PbN,mp-973785,0.6616204649999995,72.04779011865043
121736,Hf2Ni,mp-861,-0.34002011666666593,129.67212247018625
89765,Cs2NiO2,mp-755100,-1.2504757161724136,20.669262661356427
138057,Na4P2O7,mp-27579,-2.609686868105658,45.53831287398491
72416,Ca,mp-132,0.006076730000000197,17.49250675149124
54281,ZnSe,mp-569679,-0.7915612536718748,10.69270203612799
49723,RbVCl3,mp-23319,-1.8713215714999998,15.930675077123183
74956,LiNO3,mp-8180,-1.3871190626666674,39.413223866623994
116779,HfAlRu2,mp-864909,-0.7560818074999993,194.71049871404054
15994,Li2SnAu,mp-30405,-0.5311219154166671,57.83048357524115
17243,TiFe2Sn,mp-19963,-0.2695705795833332,181.40110193904104
124558,MoS2,mp-1023924,-1.1995432954166674,11.545632396921592
109645,Na5SiP3,mp-5929,-0.4130860680842912,30.109547172853976
62402,SrIn2Pd,mp-21024,-0.5967904029166666,49.10895173519827
97890,Na2Pd3O4,mp-27562,-1.1454307059003825,93.01085451533221
33222,Cr(CoO3)2,mp-752462,-1.320381776666667,41.48970203008297
28335,Fe2O3F,mp-753167,-1.6580548545833327,136.23171095196145
110661,Y3Al7Cu2,mp-865990,-0.5040530291666663,88.00684506964323
44731,Hf2Cu,mp-30581,-0.1577850166666662,123.36928558062608
71574,MgNi2,mp-2675,-0.2205461637499996,126.85727513514128
70500,CuAgS,mp-8911,-0.2731831865972225,45.914652359358314
7959,BeCo2Ge,mp-862706,-0.30796471000000025,204.54806452886504
113379,K3CuO2,mp-28273,-1.2982919027499993,27.885389469300062
33283,YZn5,mp-30885,-0.2956770511111113,78.74630396206055
125578,BaNbS3,mp-35143,-1.7471008148750002,47.63217776215406
107038,Rb2PtCl6,mp-23350,-1.6357177794444442,10.971054274100265
107042,ScS2,mp-862373,-1.531134442083334,63.68897008718113
117255,CrB4,mp-27710,-0.30302774933333154,277.43458251424056
146133,SrMg2,mp-2572,-0.08011141305555558,25.71251463455056
83409,SnSb,mp-10635,-0.08390630750000039,50.13337155969057
107110,Mn3ZnN,mp-15805,-0.27618608575861997,194.9234923826531
85397,YAl3,mp-2451,-0.43394384749999954,72.2878331675428
146315,BPO4,mp-3589,-2.7646443820833326,60.337538750751435
82353,Be2RuPt,mp-865021,-0.5183394337499996,223.09056518310504
16817,Hf5Si3,mp-15965,-0.7179173056250008,141.41747080429894
106812,NaMnF3,mp-560242,-2.969323428896552,59.86629428209389
126215,MgTi2O4,mp-27872,-3.2212858859523803,161.57732332904004
71200,FeRh,mp-1918,-0.041342895000000546,196.6905290171277
57213,CdSiP2,mp-4666,-0.1968959354166664,74.87507834015638
60536,Mg2Cu,mp-865014,-0.10132316999999998,55.79656871156275
8184,AlBMo,mp-7574,-0.449972244722223,211.06274797179742
121128,SmBr3,mp-27976,-2.295574830625,8.951654611615584
98841,Li2PNO2,mp-1020019,-2.173641083333333,89.08676072295808
68039,Ga,mp-142,0.0,49.66627556295542
126096,CaCdPd2,mp-866279,-0.5668405124999998,75.65474364804169
107776,K2CuF4,mp-5699,-2.538682369428571,43.41894335068129
123308,TiGeO3,mp-780260,-2.6830558546666667,28.40081002620044
92888,ZrZnNi4,mp-11533,-0.4136180200000001,166.81991145510938
38732,TiZnO3,mp-635713,-2.7254015106666665,63.81801410392795
8632,Nb3Ge,mp-1373,-0.26631882749999924,171.57112057230825
37800,CuS,mp-1023128,-0.3203311165624996,104.82740632444253
83789,Fe7C3,mp-18257,0.0798248545000007,242.4065958260755
65048,Pd(SeBr3)2,mp-29496,-0.5885615588541668,2.033559407823796
20692,YCu2,mp-2698,-0.26105899888888945,79.99769658960572
77132,Ca3BN3,mp-30315,-1.238514797738095,80.91642822092282
119510,Cr3PtN,mp-10374,-0.39227757100000105,266.7819312319873
110345,HfB2,mp-1994,-1.0178834761111102,250.88886019843824
51831,CaHg2,mp-11287,-0.4469216666666666,37.531169936647736
113399,LiAg2Ge,mp-9472,-0.16372422791666663,65.24699777962162
49316,Li2VO2,mp-774411,-2.051847119333334,111.96850369597064
130040,Y2O3,mp-2652,-3.9709200774166673,137.73488203686657
64262,Ca(AlGe)2,mp-3862,-0.39084084000000063,57.58760210567582
1995,Na2Se,mp-1266,-1.2192301018157323,25.860055237219942
111998,LaSi,mp-1860,-0.7028952825000001,68.53787112204265
43705,ZrCo2,mp-929,-0.3113923850000013,164.0442765460878
114229,MoP,mp-219,-0.6556343416666675,219.4598366019629
124752,MnB,mp-616575,-0.0007014422988502744,155.57680500337966
125038,ZrCuF6,mp-560865,-0.6005423993750005,14.385225129443892
12188,LiCoF4,mp-554689,-2.4610834038888894,61.273258935545414
77095,V2C,mp-1008632,-0.4538206866666658,218.97352766400968
119029,Ni4W,mp-30811,-0.10786662199999882,234.14774906549843
123329,Ga2Te3,mp-38970,-0.5752112840000002,22.156105752216106
72290,YRh2,mp-921,-0.7316252238888895,152.480702766511
29532,CaCdSn,mp-568695,-0.4994167372222225,41.96871617718475
69551,Ca3Au4,mp-12699,-0.7886757228571426,51.202354328285374
71547,Ba5Al5Pb,mp-568809,-0.3308279290909091,28.63893285277716
68996,ScSnAu,mp-6919,-0.6917537583333336,82.17715966483752
121454,BaCuAs,mp-9898,-0.7491517933333327,52.672963124499994
15226,Ga2O3,mp-13134,-1.984921558,163.0361264427298
124699,MgPd5,mp-976976,-0.3330533766666666,139.03848442315447
68837,LiP,mp-9588,-0.5232530195833336,40.54967911940943
68549,TiPt,mp-11552,-0.7846601416666674,182.30447986706318
67077,Sr(AlTe2)2,mp-37091,-1.075739436666666,23.090681939890423
87740,ZrAlW,mp-631503,0.7195477599999988,100.22974499621432
141310,LiVF4,mp-754337,-3.2048183430555555,53.21173313964977
33048,Ge,mp-137,0.149389906666667,52.95777646708946
51216,B4C,mp-696746,-0.02938511199999899,226.56839039303395
83860,CeMg,mp-1062,0.08697864250000009,67.39777927239909
108467,W3O7F,mp-759488,-2.1601268043181805,227.81653354160937
20664,FeNi,mp-2213,-0.06722973499999974,186.63083912697488
55169,Co,mp-54,0.0,212.07558268915477
46738,LiZnO2,mp-754344,-1.6295338933333334,104.20763312779337
143397,Al8Mo3,mp-2733,-0.3357490745454548,141.40035127607285
101286,Ti2MnBe,mp-861958,-0.20339073239942618,153.26453622985048
8842,Al3Fe,mp-984873,-0.15406494749999933,125.43305383047196
27206,VCoSb,mp-4076,-0.2500421216666666,140.94003130474078
110202,TiAlRh2,mp-866153,-0.9830098508333327,193.19441109176552
95183,BiB,mp-1006880,0.821303085416667,72.37281380646976
80921,AlMo3,mp-259,-0.24410424625000005,224.92447410257813
144259,Li(TiSe2)3,mp-8132,-1.4411682037395834,21.892325389844885
44016,C,mp-1018088,1.3041921925000004,255.04359220683872
14305,NaPt2,mp-2271,-0.36573053885057466,123.53076904762972
93159,Nb4N3,mp-569167,-1.0706450121428557,280.42872825178085
67097,Al21Pd8,mp-1498,-0.5593938048275857,108.60351710070205
39013,TiNbO4,mp-755302,-3.1573800788888895,162.33477371964642
20490,Hf2Al3,mp-846,-0.4258436969999998,113.94733311320962
99012,Fe2P,mp-778,-0.4578205022222224,215.62549432525805
85912,Ca(CoGe)2,mp-4259,-0.4737103519999998,97.26342104990667
55528,Tl3SbSe3,mp-4876,-0.564887661004464,14.063482502044018
55456,TiAsRh,mp-505540,-0.8762976852777781,178.45621830010117
102690,Al2Fe3Si4,mp-29111,-0.3983978000000003,172.38268252045225
112152,Ba(CuS)2,mp-4255,-1.1115908392500002,65.95146079244583
26357,SiO2,mp-8352,-3.254802676666667,147.03500813210997
35824,CaPd5,mp-11826,-0.3671589966666667,113.4437953784959
77305,V,mp-146,0.0,179.4609068905351
111517,CsTiBr3,mp-22962,-1.7135035427528742,15.244979751853753
141451,LiHfRh2,mp-867148,-0.7297507983333329,151.73362649517065
68405,Ti3B4,mp-1025170,-0.9328539909523812,224.79799045774678
89331,Nd2WO6,mp-18057,-3.2377471572222225,124.65380947837588
62713,MoO3,mp-685156,-1.1565558156249995,81.59639957138174
97631,HfSn,mp-21328,-0.27205373500000096,102.1156515679156
58425,NbCoSb,mp-31460,-0.27335437166666665,155.93952367149905
129332,NbPS,mp-27471,-0.9654205071527772,135.82277957382018
70767,LiGaCu2,mp-861901,-0.199819090208333,83.98253774807543
129735,Ni2SbTe,mp-38006,-0.3810660349999999,104.16131445906056
144029,LiSn,mp-569073,-0.32586698916666695,35.19581138970369
76445,BaTiO3,mp-19990,-1.6848189356666665,95.5575500410124
137488,CuS,mp-504,-0.4446092773958335,80.16049856766725
139647,CuBiO2,mp-997054,-1.2602380275000007,46.046768748423645
135733,SrHfO3,mp-13108,-3.780055470333333,152.285451959785
77629,BaAl9Ni2,mp-12549,-0.36106862000000045,78.6067433030897
108189,Ga2S3,mp-539,-0.9642657478750003,30.68435297059375
97123,SrO,mp-2472,-3.077090665833333,87.42517203457136
140254,MnNi,mp-11500,-0.041736448965517425,149.3352319353071
47717,Al3Cr,mp-867780,-0.1403820824999995,107.08583423282468
41241,TiPRu,mp-10739,-1.0170403338888891,220.81060923317602
85001,NiSnF6,mp-560023,-2.6395651875000006,30.97733314200579
59040,LiV2N3,mp-1029338,-1.1237539630555549,147.69608146974295
104811,Si2W,mp-1620,-0.34600080666666716,218.47991738530078
36889,Ba(NiP2)2,mp-28927,-0.6549892261904761,97.56234513736128
39993,Rb2PtS2,mp-7929,-1.10081790825,32.24261455875213
113152,FeCuS2,mp-640073,-0.5125215740625011,52.23309355575785
99661,AgP2,mp-8200,-0.0061465336111107645,62.42681002559746
12089,PrBr3,mp-23221,-2.309869445625,26.215609435901712
121762,CaPtF6,mp-8255,-2.6802502806249997,14.724327694841183
24013,CdCN2,mp-10969,-0.08146699749999975,86.42207626585534
81824,EuF3,mp-19908,-3.803622284375,85.77146909953345
58558,Li4Fe3O8,mp-771986,-1.7000616242222217,91.4578470301244
90486,Zr2O,mp-753629,-1.9908461322222228,153.37099997573674
53860,Mg5Rh2,mp-30778,-0.38255036857142904,70.85887235741336
59532,Ni3Ge,mp-21008,-0.28981357624999937,174.70867351266185
33103,ScGaRu2,mp-867156,-0.44062623312499927,171.69559853821346
600,ZnSb,mp-753,-0.12399639812500007,47.78765873726188
56357,ZrCo3B2,mp-10059,-0.5566285155555555,243.9962070949504
26288,ZnNi,mp-1486,-0.2457631,146.45199615634937
79084,Rb2Pt3S4,mp-4030,-0.9384345163888889,21.305591583844365
36071,YCuO2,mp-2918,-2.723188007916666,114.28051482035531
125106,LaS,mp-2350,-2.4146084840625006,79.61989530444234
122652,YCdHg2,mp-865525,-0.37519722916666676,61.38147091237063
96036,NiO2,mp-510753,-0.6806763166666668,46.7927730856695
10443,Ti3TeO8,mp-774922,-2.926664191666667,6.28209345852283
76018,Zr6Sb2Pt,mp-12972,-0.7220385888888896,119.09327603478923
143481,Nb3In,mp-22060,0.03227491124999915,152.644623014449
99322,Ge2W,mp-542595,0.06566053000000001,171.79651033752708
135597,Hf5Te4,mp-12884,-0.8419409877777776,76.2775017195354
112142,Sc(MnSn)6,mp-12697,-0.1293365578912467,112.52642299970618
107679,ScCdPd2,mp-867911,-0.7236497387499998,106.34993948858721
125454,Sn2Rh,mp-565,-0.3994085766666669,108.14301953134432
78372,YInPt,mp-19740,-0.9941906133333336,100.80849312079023
58782,V3CoO8,mp-753738,-2.17550099625,6.478346542414522
140714,TiSi2,mp-2582,-0.5065491911111112,142.54235449683574
25882,CuSe,mp-488,-0.35862840533854207,65.36038003291426
64364,Mn,mp-8634,0.08309805206896392,279.687945417552
78556,Cu2GeSe3,mp-677105,-0.4763118670052086,59.624008648872774
108022,Fe3Pt,mp-11798,-0.07336419750000012,177.3257457491472
101507,Cs2Se,mp-1011695,-1.2054080427352727,11.686474138685778
4839,KCuO,mp-1009020,-0.36596530266666605,46.076730705389956
15146,Ga2Cu,mp-11359,-0.08417823500000014,77.5441226582703
15846,InCuPt2,mp-639659,-0.35420300499999957,172.11603909862265
108411,Ti2GaC,mp-12537,-0.7590894360416671,138.98321875937
64517,Hf3SnO8,mp-761842,-3.51573638625,181.4160821011472
125484,Sn(PbO2)2,mp-22467,-1.779286491428571,46.22689817777007
8281,CaZn,mp-30483,-0.2458217399999998,32.260129158033656
108889,ZrPRu,mp-22268,-1.1220211002777785,207.51744177071203
126499,KPF6,mp-4608,-3.092881122666667,18.044046633978006
90755,ZnBi,mp-1006226,0.10665564625000012,38.39409751614912
85849,Al5Rh2,mp-1791,-0.7410118889285714,131.0492399601474
11937,VN,mp-1048410,-1.1590071799999997,307.7566938884115
56504,Li7Sn2,mp-30767,-0.37388265648148156,27.62309891000876