,formula_pretty,material_id,formation_energy_per_atom,k_vrh
111453,Sb2Ru,mp-20928,-0.3818082916666666,115.59856792133904
25390,Rb3CoO2,mp-30194,-1.195625397916667,22.86959534643266
20807,VI3,mp-865493,-0.662163445,5.930248080762232
8473,ZrNiBi,mp-31452,-0.30791826999999944,104.49208920152083
24286,Na3CuO2,mp-754352,-1.3375447491091954,49.793297482679876
29668,Ca2Al2SiO7,mp-559691,-3.4430588020833333,102.47073435299745
87230,ScSiPd2,mp-862556,-0.80177548125,138.6230880920216
104631,Hf2Si,mp-9938,-0.7200595366666676,141.07162345141813
76214,CoAs2,mp-2715,-0.32578981500000026,131.793125964378
111914,Co(AsO3)2,mp-19292,-1.6258190033333335,143.42269707432223
23712,ZnTe,mp-2176,-0.6841570300000002,45.982043664493325
46070,SrTiN2,mp-9517,-1.5423174349999993,121.34989303044927
98934,YSbPd2,mp-865513,-0.8586732466666662,104.56917007948813
3854,NbB,mp-2580,-0.7693451645833331,263.82091693741273
130567,YMgPd,mp-12696,-0.6957296588888889,70.18093758998994
109568,NiTe,mp-203,-0.3991964474999996,100.55492829955185
34977,TiCu3O4,mp-675755,-1.7098972279166667,76.10043288748119
88196,Li3N,mp-2251,-0.45679072875000015,51.73306123579657
119111,Na2FeO3,mp-764074,-1.637298645517242,52.628328482943395
60812,MgGa2,mp-30651,-0.12463401333333331,50.112725739627244
78983,CaAu2,mp-443,-0.709974323333333,66.56092850096904
24335,Co3W,mp-1008274,-0.04772274375000052,271.549634585945
70613,SrNiO3,mp-762506,-1.764556810333334,112.91391544406348
90728,Na4FeO5,mp-759165,-1.4398116138706905,44.50966387249647
36775,Si3N4,mp-2075,-1.1524548592857147,293.21249096091833
45497,AlPd,mp-7189,-0.9140214899999997,147.90725971616175
72378,Sr(CdP)2,mp-8277,-0.588413768666667,53.39113038101512
777,BPt,mp-2192,0.07009157041666736,261.71987420173036
92460,V2Zn2O7,mp-634381,-2.1396660131818184,111.00871080526676
18812,MgCuSn,mp-11361,-0.1774837583333332,63.151986374687766
59553,CaSiPt,mp-8982,-0.9355518283333323,60.00747995564714
34545,AsPd5,mp-2512,-0.2700204958333323,151.1890175966124
125750,Zn(InS2)2,mp-541937,-0.8459846989285715,31.970653432369623
143284,LiIn2Pt,mp-20265,-0.4944937633333333,78.03996103130055
31712,Fe2CuO4,mp-770107,-1.407235007857142,159.1300225748797
60791,LiSiNi2,mp-10181,-0.48951581083333284,148.84968034779553
65063,Fe3Pd,mp-30635,0.06741327499999983,165.01347162570022
47341,Mn(AsO2)2,mp-752598,-1.7612132268472902,48.16798162612662
6152,Ca(CoO2)2,mp-17544,-1.8857562796428573,165.0935051387947
47904,NaFeAs,mp-22152,-0.2786807238505749,50.1405377585608
55235,LiCuO2,mp-773044,-1.425870712083333,40.928879587806215
14682,BeI2,mp-570886,-0.8296143583333336,2.269321950967359
56982,VOF2,mp-759163,-2.83068655625,35.26760643675236
123211,AgSbTe2,mp-12359,-0.2538966766666668,52.30950279732252
145021,Ti2InC,mp-20315,-0.668792704166667,126.88832796879709
66418,Ga2Au,mp-2776,-0.23811289833333285,73.48385043261666
141901,Li3FeF6,mp-755087,-2.8968719144999997,53.471312526820086
15932,NaBeAs,mp-9573,-0.38975037051724176,45.40618523027992
89327,ZnTe,mp-948,-0.39561343000000004,55.418955182946576
81268,Li2VF4,mp-759858,-3.0028438852380956,41.43217702781489
73190,V3Au,mp-570698,0.0646376824999999,180.27710429883857
35483,Sc2ZnAu,mp-862257,-0.5990193574999996,90.3559383165246
29443,Pt3O4,mp-1604,-0.8268794257142856,212.890434751444
44228,VRu,mp-1395,-0.23370608250000124,252.46379523552025
106896,Mn3Sn,mp-22389,0.17500912780172406,89.36687354336132
68751,TiSb2,mp-568,-0.5189937427777783,88.85072032994103
63363,Be17Nb2,mp-30441,-0.19779963921052668,139.85701904995108
4629,GaCuTe2,mp-3839,-0.49546836437499975,47.67849001915686
41972,Ca5Sb3,mp-12467,-1.05762844875,36.48261663917448
23026,Si3Mo5,mp-1332,-0.3739594918750022,241.252888302436
63640,CaVO3,mp-1435359,-2.9286859330000015,167.1114274804205
47598,Y2Si4Mo3,mp-2932,-0.6423530798148138,156.10269428091198
59586,Ti2Ga,mp-30671,-0.40278368138888965,120.84881891016866
25457,V5Si3,mp-568671,-0.5567650843750016,193.7592802740116
11732,YSnPt,mp-22275,-1.0727544147222225,108.40671504278146
66755,Mn2VGa,mp-21235,-0.2303999808405175,186.6525811524648
110541,TmI3,mp-865353,-1.6215998391666666,3.110471824533293
95023,NaVS2,mp-10224,-1.2666850332004316,60.06800487566727
77364,Mg(BC)2,mp-3582,-0.14715701116666652,157.97894470289947
104667,MgSc,mp-1174,-0.04004057249999926,48.41873621914224
27459,Te4Mo3,mp-8601,-0.49409426571428533,32.978695411206445
114989,Cu2Se,mp-16366,-0.13521404078124988,86.12426525951355
121065,PF5,mp-8511,-2.9220839843055564,6.250174488707762
56889,TlAgO2,mp-997010,-0.8218405749999995,88.2749935590432
129102,CdTe,mp-406,-0.6692981199999997,35.30863798788644
55961,HfGa3,mp-11387,-0.3850672606250001,102.31163352164374
18709,Sr4CN4,mp-567601,-0.8455316621296297,51.433388512159745
38925,Tl2Ni3S2,mp-554212,-0.42139545184523747,53.92508062580581
3139,LiNiO2,mp-25411,-1.4854022958333335,110.29882883016107
67069,KScO2,mp-8188,-3.098326909499999,97.59641337049672
72674,TiTl3F6,mp-15635,-2.6572973688333335,31.926254470640977
78605,Zn3C,mp-971857,1.0398175525000002,93.39787100672297
143234,Ca3CrN3,mp-8670,-1.0773968164285708,85.84036262305058
128256,ScNiP,mp-10240,-1.2034788686111106,151.5600591242858
101711,NbO2,mp-755690,-2.8584483316666662,180.51545699605356
121460,Al2FeCo,mp-862691,-0.47433088375000043,181.14489446241993
11454,AlCrNi2,mp-10885,-0.2621346124999997,162.12391406151738
143954,Li13Si4,mp-672287,-0.23409543137254935,32.487325609181276
132187,Mn5SiC,mp-18468,-0.1789220095935968,219.42687499664243
70941,SnO,mp-999142,-1.1842075549999995,86.48611470671919
86562,Ti3Zn,mp-866186,-0.10705795749999947,110.65194221021422
118233,Li3Mg,mp-976139,-0.022175647499999895,18.997540391367075
119116,Na3Bi,mp-27838,-0.3693260724137932,17.13518830164756
123097,Rb2ZrO3,mp-752401,-2.7230879225,33.92951909061638
20478,Sr2CuC(NO)2,mp-1021672,-1.510348234166666,74.92741110468364